/*--------------------------------*- C++ -*----------------------------------*\
| =========                 |                                                 |
| \\      /  F ield         | OpenFOAM: The Open Source CFD Toolbox           |
|  \\    /   O peration     | Version:  4.1                                   |
|   \\  /    A nd           | Web:      www.OpenFOAM.org                      |
|    \\/     M anipulation  |                                                 |
\*---------------------------------------------------------------------------*/
FoamFile
{
    version     2.0;
    format      ascii;
    class       surfaceScalarField;
    location    "0.1";
    object      alphaPhi;
}
// * * * * * * * * * * * * * * * * * * * * * * * * * * * * * * * * * * * * * //

dimensions      [0 3 -1 0 0 0 0];

internalField   nonuniform List<scalar> 
69430
(
1.53893e-05
1.01743e-06
1.44827e-05
9.03316e-07
1.36242e-05
8.50095e-07
1.27977e-05
8.2185e-07
1.20129e-05
7.78756e-07
1.12533e-05
7.53898e-07
1.0536e-05
7.11687e-07
9.84988e-06
6.80493e-07
9.1995e-06
6.45246e-07
8.58479e-06
6.09883e-07
8.00478e-06
5.75567e-07
7.45779e-06
5.4305e-07
6.94603e-06
5.08261e-07
6.46359e-06
4.79394e-07
6.01173e-06
4.49095e-07
5.58893e-06
4.20518e-07
5.19284e-06
3.94236e-07
4.82902e-06
3.62041e-07
4.48073e-06
3.46686e-07
4.16072e-06
3.18787e-07
3.8648e-06
2.94333e-07
3.58569e-06
2.77653e-07
3.32806e-06
2.56521e-07
3.08894e-06
2.37872e-07
2.86436e-06
2.23133e-07
2.65687e-06
2.06294e-07
2.46592e-06
1.89841e-07
2.28741e-06
1.77373e-07
2.11903e-06
1.67099e-07
1.96319e-06
1.5468e-07
1.82021e-06
1.41794e-07
1.68853e-06
1.3052e-07
1.56588e-06
1.21449e-07
1.45031e-06
1.14254e-07
1.3427e-06
1.06347e-07
1.24444e-06
9.70058e-08
1.15426e-06
8.89459e-08
1.07028e-06
8.275e-08
9.90658e-07
7.84038e-08
9.16124e-07
7.33354e-08
8.47335e-07
6.76784e-08
7.84386e-07
6.18809e-08
7.2645e-07
5.69417e-08
6.72207e-07
5.3317e-08
6.2123e-07
5.01166e-08
5.73736e-07
4.67246e-08
5.30921e-07
4.21297e-08
4.92321e-07
3.80033e-08
4.58081e-07
3.37281e-08
4.25811e-07
3.18329e-08
3.95041e-07
3.04038e-08
3.65736e-07
2.90061e-08
3.38377e-07
2.71209e-08
3.13103e-07
2.50903e-08
2.89476e-07
2.34895e-08
2.67751e-07
2.16246e-08
2.47836e-07
1.98409e-08
2.2943e-07
1.83525e-08
2.12758e-07
1.66307e-08
1.97348e-07
1.53765e-08
1.83328e-07
1.39875e-08
1.70367e-07
1.29256e-08
1.58207e-07
1.21183e-08
1.46644e-07
1.15117e-08
1.35641e-07
1.09419e-08
1.25274e-07
1.02946e-08
1.15687e-07
9.50385e-09
1.06985e-07
8.60724e-09
9.91346e-08
7.74652e-09
9.20374e-08
6.98442e-09
8.55357e-08
6.38173e-09
7.94622e-08
5.94811e-09
7.37261e-08
5.60711e-09
6.82987e-08
5.29692e-09
6.31955e-08
4.97302e-09
5.84337e-08
4.63379e-09
5.40371e-08
4.27223e-09
4.99902e-08
3.92768e-09
4.62586e-08
3.61856e-09
4.2792e-08
3.36078e-09
3.95721e-08
3.12178e-09
3.65827e-08
2.89958e-09
3.37991e-08
2.70235e-09
3.12075e-08
2.51891e-09
2.88048e-08
2.33856e-09
2.65871e-08
2.16176e-09
2.45568e-08
1.98215e-09
2.27048e-08
1.81115e-09
2.10223e-08
1.64838e-09
1.94947e-08
1.49942e-09
1.8104e-08
1.36774e-09
1.68319e-08
1.25358e-09
1.56614e-08
1.15559e-09
1.45736e-08
1.07569e-09
1.35558e-08
1.00781e-09
1.25995e-08
9.47536e-10
1.16966e-08
8.94758e-10
1.08423e-08
8.46321e-10
1.00335e-08
8.00359e-10
9.27328e-09
7.5115e-10
8.56529e-09
6.9789e-10
7.91447e-09
6.39561e-10
7.32063e-09
5.81357e-10
6.78111e-09
5.25826e-10
6.28938e-09
4.76889e-10
5.83683e-09
4.3671e-10
5.41435e-09
4.05788e-10
5.01433e-09
3.82693e-10
4.63092e-09
3.65648e-10
4.26146e-09
3.51473e-10
3.90672e-09
3.36733e-10
3.56853e-09
3.20346e-10
3.25035e-09
3.00699e-10
2.95443e-09
2.78933e-10
2.68241e-09
2.55672e-10
2.4342e-09
2.32613e-10
2.20869e-09
2.10751e-10
2.00402e-09
1.90813e-10
1.81797e-09
1.73157e-10
1.64848e-09
1.57578e-10
1.49519e-09
1.42378e-10
1.35741e-09
1.27859e-10
1.23562e-09
1.12858e-10
1.12967e-09
9.79446e-11
1.03845e-09
8.41137e-11
9.60868e-10
7.13104e-11
8.95407e-10
5.99438e-11
8.40411e-10
5.01491e-11
7.93846e-10
4.22944e-11
7.5397e-10
3.60755e-11
7.19296e-10
3.12316e-11
6.88299e-10
2.77931e-11
6.59614e-10
2.55991e-11
6.32309e-10
2.42141e-11
6.05966e-10
2.31229e-11
5.80112e-10
2.23881e-11
5.54474e-10
2.18115e-11
5.28787e-10
2.13998e-11
5.03088e-10
2.0856e-11
4.77382e-10
2.02316e-11
4.51597e-10
1.96155e-11
4.2558e-10
1.91078e-11
3.99413e-10
1.84935e-11
3.72785e-10
1.81818e-11
3.45635e-10
1.79459e-11
3.18054e-10
1.76529e-11
2.90181e-10
1.72725e-11
2.62186e-10
1.67898e-11
2.3434e-10
1.61221e-11
2.06886e-10
1.53077e-11
1.8015e-10
1.42763e-11
1.54364e-10
1.31265e-11
1.29883e-10
1.17439e-11
1.06911e-10
1.02789e-11
8.5766e-11
8.61425e-12
6.6311e-11
7.20614e-12
4.8681e-11
5.76908e-12
3.2949e-11
4.35984e-12
1.91537e-11
3.00618e-12
7.30113e-12
1.70815e-12
-2.90103e-12
7.84762e-13
-1.14107e-11
-1.58326e-13
-1.80904e-11
-1.19161e-12
-2.32195e-11
-1.94082e-12
-2.69259e-11
-2.57003e-12
-2.92923e-11
-3.12737e-12
-3.03729e-11
-3.66976e-12
-3.03216e-11
-4.10486e-12
-2.93641e-11
-4.37089e-12
-2.76379e-11
-4.56597e-12
-2.53189e-11
-4.65813e-12
-2.26156e-11
-4.61849e-12
-1.96906e-11
-4.4941e-12
-1.67104e-11
-4.28025e-12
-1.38248e-11
-3.99093e-12
-1.11745e-11
-3.63001e-12
-8.87134e-12
-3.22031e-12
-7.08592e-12
-2.69438e-12
-5.59131e-12
-2.44012e-12
-4.70872e-12
-1.90083e-12
-4.38086e-12
-1.44313e-12
-4.69054e-12
-9.17064e-13
-5.30382e-12
-7.28845e-13
-6.46751e-12
-2.87498e-13
-8.07132e-12
5.67162e-14
-1.00597e-11
3.69243e-13
-1.23299e-11
6.08254e-13
-1.48469e-11
8.45834e-13
-1.75231e-11
1.03565e-12
-2.02532e-11
1.16131e-12
-2.29544e-11
1.24662e-12
-2.55305e-11
1.27702e-12
-2.78937e-11
1.25985e-12
-3.00047e-11
1.23976e-12
-3.17388e-11
1.12625e-12
-3.31137e-11
1.0575e-12
-3.40862e-11
9.65312e-13
-3.46504e-11
8.81619e-13
-3.47312e-11
7.29759e-13
-3.43877e-11
6.3551e-13
-3.35885e-11
5.03949e-13
-3.23233e-11
3.47236e-13
-3.07164e-11
2.9669e-13
-2.88448e-11
2.97633e-13
-2.67e-11
2.62347e-13
-2.4326e-11
2.39271e-13
-2.17914e-11
2.50051e-13
-1.91597e-11
2.88385e-13
-1.64926e-11
3.5228e-13
-1.38485e-11
4.38725e-13
-1.12829e-11
5.45512e-13
-8.84672e-12
6.70652e-13
-6.58382e-12
8.09809e-13
-4.53336e-12
9.6179e-13
-2.72536e-12
1.1213e-12
-1.19595e-12
1.29861e-12
6.31209e-14
1.45392e-12
1.0717e-12
1.5804e-12
1.80509e-12
1.72704e-12
2.27258e-12
1.86429e-12
2.4895e-12
1.99057e-12
2.47316e-12
2.10771e-12
2.27588e-12
2.1838e-12
1.92082e-12
2.25089e-12
1.43648e-12
2.306e-12
8.57746e-13
2.34443e-12
2.19157e-13
2.36738e-12
-4.58772e-13
2.38954e-12
-1.12616e-12
2.38141e-12
-1.74589e-12
2.35503e-12
-2.28092e-12
2.30928e-12
-2.70811e-12
2.25653e-12
-3.01561e-12
2.20599e-12
-3.20704e-12
2.17085e-12
-3.31325e-12
2.17572e-12
-3.22697e-12
2.07969e-12
-2.94848e-12
1.98754e-12
-2.48298e-12
1.90154e-12
-1.84532e-12
1.82809e-12
-1.07363e-12
1.78779e-12
-2.2885e-13
1.80106e-12
7.62928e-13
1.73057e-12
1.86744e-12
1.68287e-12
3.08658e-12
1.61866e-12
4.37114e-12
1.58943e-12
5.70413e-12
1.55966e-12
7.08868e-12
1.50953e-12
8.41635e-12
1.54966e-12
9.70846e-12
1.55002e-12
1.09611e-11
1.53566e-12
1.21529e-11
1.52497e-12
1.32532e-11
1.52789e-12
1.42731e-11
1.50341e-12
1.51716e-11
1.50479e-12
1.59485e-11
1.49381e-12
1.65959e-11
1.47819e-12
1.7087e-11
1.47999e-12
1.74228e-11
1.47239e-12
1.76031e-11
1.45985e-12
1.76275e-11
1.44344e-12
1.74993e-11
1.42312e-12
1.72234e-11
1.39836e-12
1.68091e-11
1.36715e-12
1.62604e-11
1.33731e-12
1.55854e-11
1.30582e-12
1.48007e-11
1.2662e-12
1.3912e-11
1.23107e-12
1.29398e-11
1.18702e-12
1.1897e-11
1.1426e-12
1.08143e-11
1.08064e-12
9.69627e-12
1.02915e-12
8.55017e-12
9.84481e-13
7.38425e-12
9.4645e-13
6.22194e-12
9.00248e-13
5.08483e-12
8.46538e-13
3.98248e-12
7.97768e-13
2.92098e-12
7.56069e-13
1.91364e-12
7.13742e-13
9.69684e-13
6.73617e-13
9.51978e-14
6.37832e-13
-6.99063e-13
6.00466e-13
-1.41156e-12
5.69449e-13
-2.03972e-12
5.42264e-13
-2.58255e-12
5.19081e-13
-3.04007e-12
4.99612e-13
-3.41368e-12
4.8395e-13
-3.70614e-12
4.72221e-13
-3.92125e-12
4.64305e-13
-4.06376e-12
4.60061e-13
-4.13919e-12
4.59299e-13
-4.15391e-12
4.62081e-13
-4.11413e-12
4.67466e-13
-4.02627e-12
4.75263e-13
-3.8972e-12
4.8522e-13
-3.73334e-12
4.96928e-13
-3.54113e-12
5.0991e-13
-3.32673e-12
5.23976e-13
-3.09569e-12
5.38596e-13
-2.85332e-12
5.53385e-13
-2.60426e-12
5.68124e-13
-2.35273e-12
5.82454e-13
-2.1016e-12
5.95394e-13
-1.85529e-12
6.08802e-13
-1.61571e-12
6.20569e-13
-1.38484e-12
6.31133e-13
-1.16422e-12
6.40445e-13
-9.5491e-13
6.48466e-13
-7.57611e-13
6.55188e-13
-5.72665e-13
6.60652e-13
-4.00148e-13
6.64941e-13
-2.39931e-13
6.6818e-13
-9.17504e-14
6.70525e-13
4.47299e-14
6.72162e-13
1.69876e-13
6.73286e-13
2.84048e-13
6.74092e-13
3.87586e-13
6.74759e-13
4.80797e-13
6.7545e-13
5.63924e-13
6.7632e-13
6.37247e-13
6.77405e-13
7.00921e-13
6.78869e-13
7.55201e-13
6.80633e-13
8.00042e-13
6.82993e-13
8.35533e-13
6.85797e-13
8.61388e-13
6.89393e-13
8.77396e-13
6.93657e-13
8.83069e-13
6.98819e-13
8.78245e-13
7.045e-13
8.63048e-13
7.10355e-13
8.36831e-13
7.17098e-13
7.99434e-13
7.24187e-13
7.51499e-13
7.30773e-13
6.94322e-13
7.36153e-13
6.29889e-13
7.39597e-13
5.60936e-13
7.40306e-13
4.90844e-13
7.3763e-13
4.23647e-13
7.30875e-13
3.62957e-13
7.20419e-13
3.15524e-13
7.03182e-13
2.84058e-13
6.83135e-13
2.72669e-13
6.58911e-13
2.84581e-13
6.31398e-13
3.21538e-13
6.02095e-13
3.84581e-13
5.71721e-13
4.73209e-13
5.418e-13
5.86263e-13
5.13055e-13
7.22033e-13
4.86041e-13
8.72543e-13
4.66997e-13
1.03748e-12
4.48351e-13
1.21118e-12
4.35367e-13
1.38857e-12
4.27538e-13
1.5641e-12
4.25306e-13
1.73459e-12
4.2629e-13
1.8939e-12
4.33488e-13
2.03821e-12
4.44521e-13
2.1635e-12
4.59617e-13
2.26566e-12
4.78832e-13
2.34474e-12
4.98018e-13
2.3962e-12
5.21716e-13
2.42e-12
5.4545e-13
2.41721e-12
5.68068e-13
2.38949e-12
5.88973e-13
2.33991e-12
6.0673e-13
2.27529e-12
6.17583e-13
2.19842e-12
6.25552e-13
2.11538e-12
6.27313e-13
2.0312e-12
6.23937e-13
1.94955e-12
6.16772e-13
1.87187e-12
6.08088e-13
1.79716e-12
6.00315e-13
1.72285e-12
5.951e-13
1.64676e-12
5.9208e-13
1.56689e-12
5.91114e-13
1.48464e-12
5.88846e-13
1.40582e-12
5.80909e-13
1.33871e-12
5.64841e-13
1.29528e-12
5.36945e-13
1.28924e-12
4.9559e-13
1.32186e-12
4.5313e-13
1.41261e-12
3.91371e-13
1.55816e-12
3.33112e-13
1.75759e-12
2.76032e-13
2.00213e-12
2.27879e-13
2.27477e-12
1.96918e-13
2.55218e-12
1.89409e-13
2.81052e-12
2.05891e-13
3.02857e-12
2.43676e-13
3.19079e-12
2.96996e-13
3.2859e-12
3.61615e-13
3.29682e-12
4.43273e-13
3.21179e-12
5.36619e-13
3.01897e-12
6.41674e-13
2.70457e-12
7.60373e-13
2.27196e-12
8.75489e-13
1.69044e-12
1.02119e-12
9.88657e-13
1.13799e-12
1.72303e-13
1.24873e-12
-7.40859e-13
1.34164e-12
-1.72165e-12
1.40486e-12
-2.72897e-12
1.42694e-12
-3.67052e-12
1.3562e-12
-4.5349e-12
1.27397e-12
-5.2813e-12
1.15059e-12
-5.89307e-12
1.01022e-12
-6.34306e-12
8.42544e-13
-6.62501e-12
6.6833e-13
-6.78096e-12
5.36004e-13
-6.78638e-12
3.79101e-13
-6.61278e-12
1.93576e-13
-6.28326e-12
3.11661e-14
-5.77198e-12
-1.57306e-13
-5.05458e-12
-3.69665e-13
-4.12959e-12
-5.8403e-13
-3.06918e-12
-7.25929e-13
-1.95211e-12
-7.89035e-13
-8.86746e-13
-7.43628e-13
4.92948e-14
-6.20587e-13
7.91275e-13
-4.32548e-13
1.40578e-12
-3.11094e-13
1.93357e-12
-2.30023e-13
2.42084e-12
-1.95313e-13
2.95652e-12
-2.4962e-13
3.5759e-12
-3.3841e-13
4.27059e-12
-4.19739e-13
4.98659e-12
-4.45731e-13
5.67462e-12
-4.2365e-13
6.22412e-12
-2.90091e-13
6.60212e-12
-1.23377e-13
6.81872e-12
3.26051e-14
6.84603e-12
2.17111e-13
6.70358e-12
3.82011e-13
6.47983e-12
4.5855e-13
6.18293e-12
5.2711e-13
5.73188e-12
6.76765e-13
5.03857e-12
9.14572e-13
4.09731e-12
1.15842e-12
2.90657e-12
1.4037e-12
1.7818e-12
1.3336e-12
6.74668e-13
1.31205e-12
-2.84519e-13
1.16026e-12
-9.95878e-13
9.08601e-13
-1.49604e-12
6.93947e-13
-1.91019e-12
6.04358e-13
-2.48357e-12
7.60319e-13
-3.26874e-12
9.69367e-13
-4.17768e-12
1.08981e-12
-5.10233e-12
1.10318e-12
-5.82926e-12
9.02624e-13
-6.23718e-12
5.81104e-13
-6.32481e-12
2.58731e-13
-6.13943e-12
-1.7051e-14
-5.84917e-12
-1.24307e-13
-5.55917e-12
-1.26077e-13
-5.17569e-12
-2.21994e-13
-4.48639e-12
-5.30092e-13
-3.26625e-12
-1.06304e-12
-1.58683e-12
-1.5242e-12
7.2838e-13
-2.16212e-12
3.03099e-12
-2.15128e-12
5.3677e-12
-2.18713e-12
6.98532e-12
-1.46959e-12
7.61993e-12
-4.87552e-13
7.76731e-12
-1.49839e-15
7.51144e-12
4.01173e-13
7.20552e-12
4.50393e-13
6.92513e-12
4.24709e-13
6.73073e-12
3.38373e-13
6.54043e-12
3.34791e-13
6.3897e-12
2.94348e-13
6.59665e-12
-6.16216e-14
6.83545e-12
-9.37612e-14
7.0543e-12
-7.3054e-14
7.03654e-12
1.64449e-13
6.61857e-12
5.64624e-13
5.76578e-12
1.00095e-12
4.61205e-12
1.30182e-12
3.52806e-12
1.23284e-12
2.76259e-12
9.14796e-13
2.42825e-12
4.84115e-13
2.45666e-12
1.21544e-13
2.52316e-12
8.35534e-14
2.39738e-12
2.75884e-13
2.08234e-12
4.64722e-13
1.82735e-12
4.04197e-13
1.6658e-12
3.10023e-13
1.54883e-12
2.64375e-13
1.49034e-12
2.04094e-13
1.48971e-12
1.44508e-13
1.50604e-12
1.25248e-13
1.50114e-12
1.43999e-13
1.52586e-12
1.11574e-13
1.9656e-12
-3.05988e-13
2.13923e-12
-4.27035e-14
2.3091e-12
-4.17156e-14
2.25978e-12
1.749e-13
2.68735e-12
-3.04065e-13
2.32815e-12
4.80907e-13
1.42767e-12
1.01999e-12
-4.9262e-14
1.59569e-12
-2.43726e-13
3.1216e-13
-2.54228e-12
1.53933e-05
2.01399e-06
1.44918e-05
1.7979e-06
1.3634e-05
1.69476e-06
1.28051e-05
1.64094e-06
1.2016e-05
1.55752e-06
1.12577e-05
1.5019e-06
1.05374e-05
1.42236e-06
9.85087e-06
1.3574e-06
9.20066e-06
1.28696e-06
8.5855e-06
1.21722e-06
8.0049e-06
1.14895e-06
7.45859e-06
1.08286e-06
6.94531e-06
1.01612e-06
6.46222e-06
9.57598e-07
6.01042e-06
8.96772e-07
5.59037e-06
8.36774e-07
5.19367e-06
7.8775e-07
4.82459e-06
7.286e-07
4.4809e-06
6.87276e-07
4.16049e-06
6.36621e-07
3.86299e-06
5.8956e-07
3.58495e-06
5.53239e-07
3.32621e-06
5.12793e-07
3.08696e-06
4.74777e-07
2.86415e-06
4.43753e-07
2.65675e-06
4.11554e-07
2.4642e-06
3.80237e-07
2.28525e-06
3.54118e-07
2.11891e-06
3.31251e-07
1.96392e-06
3.07542e-07
1.82033e-06
2.83216e-07
1.68742e-06
2.61175e-07
1.56426e-06
2.42303e-07
1.44916e-06
2.2706e-07
1.34291e-06
2.1033e-07
1.24436e-06
1.93302e-07
1.1534e-06
1.77675e-07
1.0685e-06
1.65454e-07
9.89302e-07
1.55465e-07
9.15275e-07
1.45327e-07
8.47386e-07
1.33657e-07
7.8452e-07
1.22948e-07
7.25961e-07
1.1383e-07
6.71612e-07
1.06129e-07
6.20959e-07
9.93808e-08
5.74384e-07
9.20681e-08
5.31683e-07
8.37614e-08
4.93261e-07
7.5501e-08
4.57979e-07
6.82235e-08
4.25196e-07
6.39569e-08
3.94274e-07
6.0786e-08
3.65062e-07
5.77876e-08
3.38052e-07
5.37962e-08
3.12892e-07
4.99982e-08
2.89377e-07
4.68156e-08
2.6777e-07
4.30936e-08
2.47906e-07
3.96018e-08
2.29616e-07
3.65637e-08
2.12904e-07
3.32758e-08
1.97474e-07
3.07421e-08
1.83266e-07
2.8126e-08
1.70205e-07
2.59051e-08
1.5794e-07
2.42858e-08
1.46353e-07
2.29836e-08
1.35405e-07
2.17549e-08
1.25176e-07
2.03692e-08
1.15758e-07
1.8748e-08
1.07117e-07
1.70579e-08
9.9249e-08
1.54079e-08
9.20916e-08
1.39231e-08
8.54948e-08
1.27503e-08
7.93479e-08
1.18608e-08
7.35787e-08
1.11397e-08
6.81475e-08
1.04923e-08
6.30779e-08
9.81083e-09
5.83633e-08
9.1235e-09
5.39925e-08
8.42753e-09
4.99446e-08
7.77124e-09
4.61966e-08
7.17525e-09
4.27315e-08
6.64856e-09
3.95165e-08
6.17457e-09
3.65251e-08
5.74406e-09
3.37416e-08
5.35447e-09
3.11595e-08
4.98481e-09
2.87705e-08
4.62625e-09
2.65696e-08
4.27536e-09
2.45489e-08
3.92873e-09
2.2704e-08
3.5939e-09
2.10233e-08
3.27764e-09
1.9492e-08
2.98866e-09
1.80932e-08
2.73232e-09
1.68089e-08
2.51017e-09
1.56244e-08
2.31743e-09
1.45286e-08
2.15238e-09
1.35078e-08
2.01187e-09
1.25502e-08
1.88953e-09
1.16464e-08
1.78328e-09
1.07939e-08
1.68279e-09
9.99077e-09
1.58625e-09
9.23858e-09
1.48436e-09
8.54054e-09
1.37494e-09
7.8976e-09
1.25937e-09
7.30866e-09
1.14504e-09
6.77066e-09
1.03659e-09
6.27763e-09
9.40921e-10
5.82206e-09
8.61826e-10
5.39619e-09
8.00098e-10
4.99342e-09
7.53166e-10
4.6096e-09
7.16809e-10
4.24152e-09
6.86892e-10
3.88993e-09
6.55995e-10
3.55693e-09
6.21681e-10
3.24453e-09
5.82359e-10
2.95436e-09
5.3954e-10
2.68729e-09
4.94539e-10
2.443e-09
4.50224e-10
2.22029e-09
4.08433e-10
2.01704e-09
3.70766e-10
1.83195e-09
3.3673e-10
1.6637e-09
3.0613e-10
1.51021e-09
2.77953e-10
1.37478e-09
2.47142e-10
1.25457e-09
2.18609e-10
1.14881e-09
1.9086e-10
1.0572e-09
1.64364e-10
9.78281e-10
1.40216e-10
9.1122e-10
1.18191e-10
8.53344e-10
1.00232e-10
8.04014e-10
8.46613e-11
7.60985e-10
7.27665e-11
7.23466e-10
6.28249e-11
6.89929e-10
5.5596e-11
6.59129e-10
5.06355e-11
6.3021e-10
4.71206e-11
6.02312e-10
4.45471e-11
5.75118e-10
4.24458e-11
5.48573e-10
4.03727e-11
5.22438e-10
3.85415e-11
4.96765e-10
3.63884e-11
4.713e-10
3.43005e-11
4.45832e-10
3.23547e-11
4.20211e-10
3.06263e-11
3.94224e-10
2.89973e-11
3.67601e-10
2.79683e-11
3.40575e-10
2.68448e-11
3.13552e-10
2.53551e-11
2.86296e-10
2.414e-11
2.58954e-10
2.28279e-11
2.31844e-10
2.11911e-11
2.05053e-10
1.95142e-11
1.78971e-10
1.74403e-11
1.53739e-10
1.53203e-11
1.29827e-10
1.27164e-11
1.07323e-10
1.01611e-11
8.64931e-11
7.34453e-12
6.7384e-11
4.93639e-12
4.99958e-11
2.67719e-12
3.4461e-11
4.60755e-13
2.07694e-11
-1.53401e-12
8.91019e-12
-3.38934e-12
-9.42681e-13
-4.92912e-12
-9.16594e-12
-6.09041e-12
-1.61588e-11
-6.911e-12
-2.15431e-11
-7.83003e-12
-2.51931e-11
-8.80378e-12
-2.75962e-11
-9.27333e-12
-2.87739e-11
-9.79309e-12
-2.90043e-11
-1.00332e-11
-2.82911e-11
-1.02202e-11
-2.6819e-11
-1.02818e-11
-2.47895e-11
-1.01757e-11
-2.22817e-11
-9.99845e-12
-1.95484e-11
-9.62139e-12
-1.67528e-11
-9.12395e-12
-1.40282e-11
-8.54123e-12
-1.1516e-11
-7.85621e-12
-9.37864e-12
-7.05663e-12
-7.66437e-12
-6.17283e-12
-6.37869e-12
-5.61542e-12
-5.48376e-12
-4.85453e-12
-5.10839e-12
-4.07045e-12
-5.3579e-12
-3.11898e-12
-6.05586e-12
-2.67199e-12
-7.199e-12
-1.9461e-12
-8.78396e-12
-1.28133e-12
-1.07302e-11
-6.75709e-13
-1.29566e-11
-1.59941e-13
-1.53794e-11
3.38762e-13
-1.79265e-11
7.92084e-13
-2.05241e-11
1.18238e-12
-2.30971e-11
1.53201e-12
-2.55873e-11
1.83764e-12
-2.78612e-11
2.02694e-12
-2.99034e-11
2.25498e-12
-3.15387e-11
2.25994e-12
-3.2848e-11
2.42724e-12
-3.3755e-11
2.51682e-12
-3.42881e-11
2.65402e-12
-3.43095e-11
2.58462e-12
-3.38985e-11
2.63639e-12
-3.30119e-11
2.58426e-12
-3.17655e-11
2.5855e-12
-3.02618e-11
2.75275e-12
-2.83989e-11
2.81697e-12
-2.62653e-11
2.87559e-12
-2.39248e-11
2.94884e-12
-2.14387e-11
3.05304e-12
-1.88663e-11
3.17855e-12
-1.62596e-11
3.31696e-12
-1.36769e-11
3.47453e-12
-1.11733e-11
3.64914e-12
-8.80388e-12
3.84424e-12
-6.59502e-12
4.0328e-12
-4.60408e-12
4.25181e-12
-2.83732e-12
4.45278e-12
-1.31454e-12
4.66759e-12
-4.60522e-14
4.85509e-12
9.43132e-13
5.03154e-12
1.66773e-12
5.21408e-12
2.13655e-12
5.38631e-12
2.36373e-12
5.54803e-12
2.37736e-12
5.6934e-12
2.18892e-12
5.81205e-12
1.83733e-12
5.91256e-12
1.3607e-12
5.99551e-12
7.97037e-13
6.05846e-12
1.82469e-13
6.10492e-12
-4.62509e-13
6.16494e-12
-1.12523e-12
6.21572e-12
-1.75104e-12
6.22511e-12
-2.25659e-12
6.16032e-12
-2.66487e-12
6.13642e-12
-2.94889e-12
6.10839e-12
-3.09522e-12
6.09839e-12
-3.21058e-12
6.24629e-12
-3.11259e-12
6.11699e-12
-2.82376e-12
6.01462e-12
-2.33406e-12
5.90435e-12
-1.69536e-12
5.8495e-12
-9.64136e-13
5.87046e-12
-1.52799e-13
5.93965e-12
8.34821e-13
5.80636e-12
1.92648e-12
5.74441e-12
3.14943e-12
5.60893e-12
4.43602e-12
5.54723e-12
5.76962e-12
5.46916e-12
7.09958e-12
5.38857e-12
8.38139e-12
5.40943e-12
9.66371e-12
5.30911e-12
1.09179e-11
5.19054e-12
1.21115e-11
5.07678e-12
1.32018e-11
4.99065e-12
1.42122e-11
4.82762e-12
1.51262e-11
4.68191e-12
1.59034e-11
4.54443e-12
1.65335e-11
4.39452e-12
1.70216e-11
4.24376e-12
1.73569e-11
4.08367e-12
1.75379e-11
3.91498e-12
1.75639e-11
3.7404e-12
1.74375e-11
3.56145e-12
1.71635e-11
3.37911e-12
1.67469e-11
3.19413e-12
1.61998e-11
3.01134e-12
1.5534e-11
2.83032e-12
1.47587e-11
2.65071e-12
1.38745e-11
2.49537e-12
1.29083e-11
2.32744e-12
1.18663e-11
2.17784e-12
1.0789e-11
1.99519e-12
9.67563e-12
1.85095e-12
8.52587e-12
1.74069e-12
7.36565e-12
1.63714e-12
6.20168e-12
1.54564e-12
5.07232e-12
1.43296e-12
3.97283e-12
1.35442e-12
2.916e-12
1.29248e-12
1.91169e-12
1.24092e-12
9.69831e-13
1.20025e-12
9.9713e-14
1.17096e-12
-6.95339e-13
1.15058e-12
-1.40888e-12
1.14158e-12
-2.03813e-12
1.14262e-12
-2.58169e-12
1.15278e-12
-3.03984e-12
1.17111e-12
-3.41407e-12
1.19674e-12
-3.70712e-12
1.2289e-12
-3.92276e-12
1.26667e-12
-4.0657e-12
1.30911e-12
-4.14141e-12
1.35523e-12
-4.15629e-12
1.40496e-12
-4.11645e-12
1.45576e-12
-4.02831e-12
1.50744e-12
-3.89874e-12
1.55913e-12
-3.73415e-12
1.61011e-12
-3.54081e-12
1.65941e-12
-3.32543e-12
1.7072e-12
-3.09306e-12
1.75186e-12
-2.84947e-12
1.79359e-12
-2.59861e-12
1.83113e-12
-2.34467e-12
1.86474e-12
-2.09294e-12
1.89519e-12
-1.84522e-12
1.92151e-12
-1.60431e-12
1.94329e-12
-1.37229e-12
1.96098e-12
-1.15075e-12
1.97474e-12
-9.4082e-13
1.9848e-12
-7.43236e-13
1.99142e-12
-5.58387e-13
1.99494e-12
-3.8638e-13
1.99574e-12
-2.27108e-13
1.99425e-12
-8.0313e-14
1.99095e-12
5.43563e-14
1.98632e-12
1.77299e-13
1.98086e-12
2.88929e-13
1.97503e-12
3.89658e-13
1.96924e-12
4.79881e-13
1.96384e-12
5.5994e-13
1.95916e-12
6.30221e-13
1.95526e-12
6.9098e-13
1.95248e-12
7.42488e-13
1.95071e-12
7.84858e-13
1.95038e-12
8.18201e-13
1.95128e-12
8.42374e-13
1.95393e-12
8.57212e-13
1.95815e-12
8.6238e-13
1.96424e-12
8.57775e-13
1.97148e-12
8.43755e-13
1.97896e-12
8.19522e-13
1.98847e-12
7.85323e-13
1.99833e-12
7.41842e-13
2.00714e-12
6.90336e-13
2.01359e-12
6.3272e-13
2.01621e-12
5.71534e-13
2.01351e-12
5.09914e-13
2.0042e-12
4.51522e-13
1.98709e-12
3.99378e-13
1.96308e-12
3.59825e-13
1.92585e-12
3.34834e-13
1.8837e-12
3.28193e-13
1.83348e-12
3.42476e-13
1.7773e-12
3.79494e-13
1.71745e-12
4.39717e-13
1.65605e-12
5.22574e-13
1.59565e-12
6.26461e-13
1.53804e-12
7.49363e-13
1.48427e-12
8.88424e-13
1.44133e-12
1.0388e-12
1.40377e-12
1.19688e-12
1.37554e-12
1.35847e-12
1.35675e-12
1.52023e-12
1.34702e-12
1.67364e-12
1.34907e-12
1.81865e-12
1.35748e-12
1.95019e-12
1.37484e-12
2.06477e-12
1.39978e-12
2.16089e-12
1.43036e-12
2.22924e-12
1.47019e-12
2.27555e-12
1.50877e-12
2.29755e-12
1.54957e-12
2.29586e-12
1.58854e-12
2.27219e-12
1.62395e-12
2.22932e-12
1.65327e-12
2.17356e-12
1.6692e-12
2.1074e-12
1.67956e-12
2.03602e-12
1.67832e-12
1.96383e-12
1.66734e-12
1.89361e-12
1.64965e-12
1.82633e-12
1.62936e-12
1.76125e-12
1.61067e-12
1.69602e-12
1.59694e-12
1.62875e-12
1.58739e-12
1.55879e-12
1.58074e-12
1.4878e-12
1.57135e-12
1.42228e-12
1.55006e-12
1.36989e-12
1.51334e-12
1.3404e-12
1.45528e-12
1.34156e-12
1.37641e-12
1.38455e-12
1.28562e-12
1.47412e-12
1.17117e-12
1.60672e-12
1.06407e-12
1.78612e-12
9.54689e-13
2.00814e-12
8.58691e-13
2.25149e-12
8.01453e-13
2.49406e-12
7.89923e-13
2.71731e-12
8.21053e-13
2.90022e-12
8.94596e-13
3.03275e-12
9.93692e-13
3.10739e-12
1.11153e-12
3.10208e-12
1.26832e-12
3.00819e-12
1.44521e-12
2.81675e-12
1.64254e-12
2.51793e-12
1.86308e-12
2.09313e-12
2.09814e-12
1.58362e-12
2.32212e-12
9.58579e-13
2.54772e-12
2.32719e-13
2.75175e-12
-5.80456e-13
2.92434e-12
-1.43671e-12
3.02208e-12
-2.30199e-12
3.04451e-12
-3.1385e-12
2.93553e-12
-3.89306e-12
2.76146e-12
-4.55458e-12
2.53476e-12
-5.08013e-12
2.24755e-12
-5.48076e-12
1.9438e-12
-5.75117e-12
1.62791e-12
-5.87533e-12
1.33765e-12
-5.85936e-12
1.02892e-12
-5.76909e-12
7.57241e-13
-5.5192e-12
4.23608e-13
-5.05509e-12
8.52195e-15
-4.43659e-12
-3.69858e-13
-3.64083e-12
-7.73465e-13
-2.74132e-12
-1.03082e-12
-1.79053e-12
-1.15678e-12
-8.6703e-13
-1.09518e-12
-5.09356e-15
-9.21634e-13
7.39226e-13
-6.26674e-13
1.31969e-12
-3.5227e-13
1.82028e-12
-2.0164e-13
2.30511e-12
-1.60965e-13
2.86504e-12
-3.01114e-13
3.48648e-12
-4.60277e-13
4.15618e-12
-6.00596e-13
4.85174e-12
-6.61001e-13
5.44974e-12
-5.51012e-13
5.99332e-12
-3.72717e-13
6.36854e-12
-4.61482e-14
6.54171e-12
3.02602e-13
6.55367e-12
6.39608e-13
6.40693e-12
9.54677e-13
6.13232e-12
1.15062e-12
5.70751e-12
1.3612e-12
5.23775e-12
1.54803e-12
4.59771e-12
1.94816e-12
3.801e-12
2.34128e-12
2.75275e-12
2.83077e-12
1.6437e-12
2.81425e-12
5.95111e-13
2.72519e-12
-2.33265e-13
2.34657e-12
-9.15726e-13
1.94228e-12
-1.48353e-12
1.607e-12
-2.02132e-12
1.48161e-12
-2.7668e-12
1.83929e-12
-3.5292e-12
2.06071e-12
-4.41797e-12
2.30198e-12
-5.17019e-12
2.17444e-12
-5.68305e-12
1.73008e-12
-5.84983e-12
1.05751e-12
-5.68408e-12
3.98803e-13
-5.27363e-12
-1.25898e-13
-4.80661e-12
-2.94164e-13
-4.26391e-12
-3.75487e-13
-3.63092e-12
-5.65632e-13
-2.81607e-12
-1.05942e-12
-1.67074e-12
-1.92685e-12
-3.41831e-13
-2.57488e-12
1.21021e-12
-3.43937e-12
2.76038e-12
-3.42951e-12
4.23389e-12
-3.39116e-12
5.11939e-12
-2.0881e-12
5.79735e-12
-8.99933e-13
6.09445e-12
-3.46748e-14
6.17911e-12
5.79896e-13
6.21343e-12
6.78529e-13
6.24287e-12
6.57823e-13
6.35542e-12
4.87489e-13
6.32394e-12
6.29974e-13
6.40209e-12
4.7856e-13
6.44271e-12
1.62227e-13
6.53928e-12
7.49075e-14
6.56199e-12
1.70238e-13
6.26236e-12
7.32329e-13
5.64345e-12
1.4516e-12
4.76219e-12
2.1523e-12
3.81236e-12
2.52225e-12
2.92236e-12
2.39432e-12
2.28989e-12
1.81926e-12
1.96964e-12
1.07678e-12
1.713e-12
6.50795e-13
1.38996e-12
6.7892e-13
9.61979e-13
9.75941e-13
8.22965e-13
8.74771e-13
5.80054e-13
9.16543e-13
3.75708e-13
7.81357e-13
1.19208e-13
7.85288e-13
-2.66892e-13
8.50746e-13
-4.80456e-13
6.14674e-13
-6.11268e-13
5.08088e-13
-8.44549e-13
6.24745e-13
-8.45704e-13
3.54965e-13
-8.65822e-13
-4.84647e-14
-6.9313e-13
1.73939e-14
-5.77783e-13
7.14943e-14
-5.15263e-13
3.36851e-13
-4.79126e-13
-1.19504e-13
-3.76646e-13
5.96955e-13
-8.31788e-13
1.69049e-12
-1.06145e-12
2.03896e-12
-8.95258e-13
3.59215e-13
-5.75725e-12
1.53755e-05
3.01453e-06
1.44761e-05
2.69149e-06
1.36179e-05
2.54249e-06
1.27894e-05
2.46087e-06
1.19971e-05
2.34067e-06
1.12411e-05
2.24917e-06
1.05203e-05
2.13483e-06
9.83249e-06
2.03692e-06
9.18238e-06
1.92957e-06
8.56947e-06
1.82321e-06
7.98957e-06
1.72256e-06
7.44341e-06
1.62347e-06
6.92879e-06
1.52561e-06
6.44898e-06
1.43276e-06
5.996e-06
1.34617e-06
5.57516e-06
1.25449e-06
5.18141e-06
1.17837e-06
4.81208e-06
1.09554e-06
4.46976e-06
1.02707e-06
4.15173e-06
9.52455e-07
3.85271e-06
8.86295e-07
3.57467e-06
8.29008e-07
3.31761e-06
7.67816e-07
3.07858e-06
7.11842e-07
2.85639e-06
6.64004e-07
2.64913e-06
6.16879e-07
2.45691e-06
5.70574e-07
2.27904e-06
5.30135e-07
2.1134e-06
4.95023e-07
1.95877e-06
4.60263e-07
1.81493e-06
4.25126e-07
1.6822e-06
3.91953e-07
1.55929e-06
3.63222e-07
1.44545e-06
3.3891e-07
1.3396e-06
3.14199e-07
1.24084e-06
2.90084e-07
1.14958e-06
2.66985e-07
1.06469e-06
2.48428e-07
9.86084e-07
2.32209e-07
9.13016e-07
2.16633e-07
8.45336e-07
1.99661e-07
7.82375e-07
1.84335e-07
7.23661e-07
1.71074e-07
6.69567e-07
1.58883e-07
6.19556e-07
1.48177e-07
5.73475e-07
1.37066e-07
5.31006e-07
1.2529e-07
4.9258e-07
1.13111e-07
4.56686e-07
1.03421e-07
4.23526e-07
9.65325e-08
3.92562e-07
9.12719e-08
3.637e-07
8.62671e-08
3.36924e-07
8.02722e-08
3.11853e-07
7.48413e-08
2.88595e-07
6.99039e-08
2.67126e-07
6.44354e-08
2.47293e-07
5.93394e-08
2.29094e-07
5.46888e-08
2.1251e-07
4.97964e-08
1.97073e-07
4.61178e-08
1.82871e-07
4.22632e-08
1.69648e-07
3.90532e-08
1.57307e-07
3.6539e-08
1.45738e-07
3.4449e-08
1.34898e-07
3.24745e-08
1.24811e-07
3.03183e-08
1.1549e-07
2.79149e-08
1.06952e-07
2.54271e-08
9.9128e-08
2.30492e-08
9.19149e-08
2.09428e-08
8.52485e-08
1.92152e-08
7.90552e-08
1.78472e-08
7.32769e-08
1.6709e-08
6.78866e-08
1.56743e-08
6.28488e-08
1.46438e-08
5.81641e-08
1.36094e-08
5.38133e-08
1.25875e-08
4.97799e-08
1.16237e-08
4.60411e-08
1.07444e-08
4.25773e-08
9.95506e-09
3.9366e-08
9.24167e-09
3.6382e-08
8.59735e-09
3.36102e-08
8.00905e-09
3.10423e-08
7.44893e-09
2.86694e-08
6.90836e-09
2.64844e-08
6.3819e-09
2.44792e-08
5.86706e-09
2.26448e-08
5.37206e-09
2.09688e-08
4.90682e-09
1.94368e-08
4.48215e-09
1.80337e-08
4.10393e-09
1.67448e-08
3.77324e-09
1.55562e-08
3.4848e-09
1.44552e-08
3.23551e-09
1.34303e-08
3.02098e-09
1.24708e-08
2.83443e-09
1.15702e-08
2.66948e-09
1.07228e-08
2.51547e-09
9.92838e-09
2.36488e-09
9.18684e-09
2.20868e-09
8.49858e-09
2.0443e-09
7.86315e-09
1.87411e-09
7.27861e-09
1.7071e-09
6.7419e-09
1.54913e-09
6.24768e-09
1.40948e-09
5.78978e-09
1.29282e-09
5.36192e-09
1.20012e-09
4.95856e-09
1.12807e-09
4.57574e-09
1.07088e-09
4.21176e-09
1.02212e-09
3.86593e-09
9.73406e-10
3.53919e-09
9.20576e-10
3.23301e-09
8.61515e-10
2.94859e-09
7.97967e-10
2.68641e-09
7.31917e-10
2.44596e-09
6.67214e-10
2.22599e-09
6.06395e-10
2.02532e-09
5.50937e-10
1.84265e-09
5.00477e-10
1.67545e-09
4.55982e-10
1.52639e-09
4.11242e-10
1.39133e-09
3.67974e-10
1.27117e-09
3.26026e-10
1.16521e-09
2.85487e-10
1.07254e-09
2.47009e-10
9.92164e-10
2.11764e-10
9.22401e-10
1.8018e-10
8.62801e-10
1.52962e-10
8.10853e-10
1.30476e-10
7.65683e-10
1.12364e-10
7.25855e-10
9.74544e-11
6.8993e-10
8.65043e-11
6.57313e-10
7.82265e-11
6.26413e-10
7.27914e-11
5.97621e-10
6.77224e-11
5.70061e-10
6.38263e-11
5.43081e-10
6.04497e-11
5.16647e-10
5.72046e-11
4.90577e-10
5.36997e-11
4.64784e-10
5.02508e-11
4.39016e-10
4.71254e-11
4.13283e-10
4.41706e-11
3.87303e-10
4.15892e-11
3.61153e-10
3.95527e-11
3.35048e-10
3.72596e-11
3.0844e-10
3.52319e-11
2.81713e-10
3.32031e-11
2.55042e-10
3.10324e-11
2.28555e-10
2.85645e-11
2.02457e-10
2.60182e-11
1.7707e-10
2.29349e-11
1.5264e-10
1.97459e-11
1.29472e-10
1.59579e-11
1.07707e-10
1.22676e-11
8.734e-11
8.49726e-12
6.85496e-11
5.12977e-12
5.14789e-11
1.92672e-12
3.62029e-11
-1.18577e-12
2.27327e-11
-3.94544e-12
1.11191e-11
-6.5545e-12
9.13973e-13
-8.30157e-12
-7.72264e-12
-9.80431e-12
-1.44125e-11
-1.13229e-11
-1.94168e-11
-1.26787e-11
-2.32915e-11
-1.35723e-11
-2.57878e-11
-1.42599e-11
-2.73231e-11
-1.46534e-11
-2.76158e-11
-1.51392e-11
-2.70752e-11
-1.52657e-11
-2.58129e-11
-1.52684e-11
-2.39816e-11
-1.50688e-11
-2.17785e-11
-1.47223e-11
-1.93351e-11
-1.41641e-11
-1.68169e-11
-1.34351e-11
-1.43598e-11
-1.25928e-11
-1.2071e-11
-1.16374e-11
-1.0007e-11
-1.05955e-11
-8.47164e-12
-9.23654e-12
-7.31064e-12
-8.4117e-12
-6.44578e-12
-7.50052e-12
-6.26681e-12
-6.19799e-12
-6.28542e-12
-5.22201e-12
-6.99254e-12
-4.25238e-12
-8.15412e-12
-3.21348e-12
-9.61421e-12
-2.35715e-12
-1.14479e-11
-1.44037e-12
-1.35775e-11
-6.35374e-13
-1.58925e-11
1.01538e-13
-1.83182e-11
7.82543e-13
-2.08395e-11
1.45067e-12
-2.33267e-11
2.01355e-12
-2.56104e-11
2.42369e-12
-2.77108e-11
2.79389e-12
-2.957e-11
3.19465e-12
-3.11403e-11
3.36453e-12
-3.23284e-11
3.63609e-12
-3.31216e-11
3.83731e-12
-3.35315e-11
4.10734e-12
-3.35469e-11
4.15989e-12
-3.31502e-11
4.30239e-12
-3.22952e-11
4.27532e-12
-3.12055e-11
4.49292e-12
-2.96195e-11
4.57825e-12
-2.77628e-11
4.74093e-12
-2.56917e-11
4.90421e-12