/*--------------------------------*- C++ -*----------------------------------*\
| =========                 |                                                 |
| \\      /  F ield         | OpenFOAM: The Open Source CFD Toolbox           |
|  \\    /   O peration     | Version:  4.1                                   |
|   \\  /    A nd           | Web:      www.OpenFOAM.org                      |
|    \\/     M anipulation  |                                                 |
\*---------------------------------------------------------------------------*/
FoamFile
{
    version     2.0;
    format      ascii;
    class       volScalarField;
    location    "0.1";
    object      p;
}
// * * * * * * * * * * * * * * * * * * * * * * * * * * * * * * * * * * * * * //

dimensions      [1 -1 -2 0 0 0 0];

internalField   nonuniform List<scalar> 
35000
(
4076.17
4059.84
4048.87
4038.85
4029.02
4019.6
4010.64
4002.1
3993.99
3986.3
3979.02
3972.12
3965.61
3959.47
3953.69
3948.25
3943.13
3938.34
3933.84
3929.63
3925.68
3921.98
3918.52
3915.28
3912.25
3909.41
3906.76
3904.29
3901.97
3899.81
3897.8
3895.92
3894.17
3892.54
3891.02
3889.61
3888.29
3887.07
3885.92
3884.86
3883.88
3882.97
3882.12
3881.34
3880.61
3879.93
3879.31
3878.73
3878.2
3877.7
3877.24
3876.81
3876.41
3876.04
3875.7
3875.39
3875.1
3874.83
3874.58
3874.34
3874.13
3873.92
3873.73
3873.55
3873.38
3873.23
3873.08
3872.94
3872.81
3872.69
3872.58
3872.47
3872.36
3872.27
3872.18
3872.09
3872.01
3871.94
3871.87
3871.8
3871.74
3871.68
3871.63
3871.58
3871.53
3871.49
3871.45
3871.41
3871.38
3871.35
3871.32
3871.29
3871.27
3871.25
3871.23
3871.21
3871.2
3871.18
3871.17
3871.16
3871.15
3871.14
3871.13
3871.12
3871.12
3871.11
3871.11
3871.11
3871.1
3871.1
3871.1
3871.1
3871.09
3871.09
3871.09
3871.09
3871.09
3871.09
3871.09
3871.09
3871.08
3871.08
3871.08
3871.08
3871.08
3871.08
3871.08
3871.08
3871.08
3871.07
3871.07
3871.07
3871.07
3871.07
3871.07
3871.06
3871.06
3871.06
3871.06
3871.06
3871.06
3871.06
3871.06
3871.05
3871.05
3871.05
3871.05
3871.05
3871.05
3871.05
3871.05
3871.05
3871.05
3871.04
3871.04
3871.04
3871.04
3871.04
3871.04
3871.04
3871.04
3871.04
3871.04
3871.04
3871.04
3871.04
3871.03
3871.03
3871.03
3871.03
3871.03
3871.03
3871.03
3871.03
3871.03
3871.03
3871.03
3871.03
3871.03
3871.03
3871.03
3871.03
3871.03
3871.03
3871.03
3871.03
3871.03
3871.03
3871.03
3871.03
3871.03
3871.03
3871.03
3871.03
3871.03
3871.02
3871.02
3871.02
3871.02
3871.02
3871.02
3871.02
3871.02
3871.01
3871.01
3871.01
3871.01
3871.01
3871.01
3871.01
3871.01
3871.01
3871
3871
3871
3871
3871
3871
3871
3871
3871
3871
3871
3871
3871.01
3871.01
3871.01
3871.01
3871.01
3871.01
3871.01
3871.01
3871.01
3871.01
3871.02
3871.02
3871.02
3871.02
3871.02
3871.02
3871.02
3871.02
3871.03
3871.03
3871.03
3871.03
3871.03
3871.03
3871.03
3871.03
3871.03
3871.03
3871.03
3871.03
3871.03
3871.03
3871.03
3871.03
3871.03
3871.03
3871.03
3871.03
3871.03
3871.03
3871.03
3871.03
3871.03
3871.03
3871.03
3871.03
3871.03
3871.03
3871.03
3871.03
3871.03
3871.03
3871.03
3871.03
3871.03
3871.03
3871.02
3871.02
3871.02
3871.02
3871.02
3871.02
3871.02
3871.02
3871.02
3871.02
3871.02
3871.02
3871.02
3871.02
3871.02
3871.02
3871.02
3871.02
3871.02
3871.02
3871.02
3871.02
3871.02
3871.02
3871.02
3871.02
3871.02
3871.02
3871.02
3871.02
3871.02
3871.02
3871.02
3871.02
3871.02
3871.02
3871.02
3871.02
3871.02
3871.02
3871.02
3871.02
3871.02
3871.02
3871.02
3871.02
3871.02
3871.02
3871.02
3871.02
3871.02
3871.02
3871.02
3871.02
3871.02
3871.02
3871.02
3871.02
3871.02
3871.02
3871.02
3871.02
3871.02
3871.02
3871.02
3871.02
3871.02
3871.02
3871.02
3871.02
3871.02
3871.02
3871.02
3871.02
3871.02
3871.02
3871.02
3871.02
3871.02
3871.02
3871.02
3871.02
3871.02
3871.02
3871.02
3871.02
3871.03
3871.03
3871.03
3871.03
3871.03
3871.03
3871.03
3871.03
3871.03
3871.03
3871.03
3871.03
3871.03
3871.03
3871.03
3871.03
3871.03
3871.03
3871.03
3871.03
3871.03
3871.03
3871.03
3871.03
3871.03
3871.03
3871.03
3871.03
3871.03
3871.03
3871.03
3871.03
3871.03
3871.03
3871.03
3871.03
3871.03
3871.03
3871.03
3871.03
3871.03
3871.03
3871.03
3871.03
3871.03
3871.03
3871.03
3871.03
3871.03
3871.03
3871.03
3871.03
3871.03
3871.03
3871.03
3871.03
3871.03
3871.03
3871.03
3871.03
3871.03
3871.03
3871.03
3871.03
3871.03
3871.03
3871.03
3871.03
3871.03
3871.03
3871.03
3871.03
3871.03
3871.03
3871.03
3871.03
3871.03
3871.03
3871.03
3871.03
3871.03
3871.03
3871.03
3871.03
3871.03
3871.03
3871.03
3871.03
3871.03
3871.03
3871.03
3871.03
3871.03
3871.03
3871.03
3871.03
3871.03
3871.03
3871.03
3871.03
3871.03
3871.03
3871.03
3871.03
3871.03
3871.03
3871.03
3871.03
3871.03
3871.03
3871.03
3871.03
3871.03
3871.03
3871.03
3871.03
3871.03
3871.03
3871.03
3871.03
3871.03
3871.03
3871.03
3871.03
3871.03
3871.03
3871.03
3871.03
3871.03
3871.03
3871.03
3871.03
3871.03
3871.03
3977.94
3961.6
3950.63
3940.62
3930.79
3921.37
3912.41
3903.88
3895.77
3888.09
3880.81
3873.92
3867.41
3861.28
3855.5
3850.06
3844.96
3840.16
3835.67
3831.46
3827.52
3823.82
3820.36
3817.13
3814.1
3811.27
3808.62
3806.15
3803.83
3801.68
3799.67
3797.79
3796.04
3794.42
3792.9
3791.48
3790.17
3788.94
3787.81
3786.75
3785.77
3784.85
3784.01
3783.22
3782.5
3781.82
3781.2
3780.62
3780.09
3779.59
3779.13
3778.7
3778.3
3777.94
3777.6
3777.29
3776.99
3776.72
3776.47
3776.24
3776.02
3775.82
3775.63
3775.45
3775.28
3775.12
3774.98
3774.84
3774.71
3774.59
3774.47
3774.36
3774.26
3774.17
3774.08
3773.99
3773.91
3773.84
3773.76
3773.7
3773.64
3773.58
3773.53
3773.48
3773.43
3773.39
3773.35
3773.31
3773.28
3773.25
3773.22
3773.19
3773.17
3773.15
3773.13
3773.11
3773.09
3773.08
3773.07
3773.06
3773.05
3773.04
3773.03
3773.02
3773.02
3773.01
3773.01
3773.01
3773
3773
3773
3773
3772.99
3772.99
3772.99
3772.99
3772.99
3772.99
3772.99
3772.99
3772.99
3772.98
3772.98
3772.98
3772.98
3772.98
3772.98
3772.98
3772.98
3772.97
3772.97
3772.97
3772.97
3772.97
3772.97
3772.96
3772.96
3772.96
3772.96
3772.96
3772.96
3772.96
3772.96
3772.95
3772.95
3772.95
3772.95
3772.95
3772.95
3772.95
3772.95
3772.95
3772.95
3772.94
3772.94
3772.94
3772.94
3772.94
3772.94
3772.94
3772.94
3772.94
3772.94
3772.94
3772.94
3772.94
3772.93
3772.93
3772.93
3772.93
3772.93
3772.93
3772.93
3772.93
3772.93
3772.93
3772.93
3772.93
3772.93
3772.93
3772.93
3772.93
3772.93
3772.93
3772.93
3772.93
3772.93
3772.93
3772.93
3772.93
3772.93
3772.93
3772.93
3772.93
3772.93
3772.92
3772.92
3772.92
3772.92
3772.92
3772.92
3772.92
3772.92
3772.91
3772.91
3772.91
3772.91
3772.91
3772.91
3772.91
3772.91
3772.91
3772.9
3772.9
3772.9
3772.9
3772.9
3772.9
3772.9
3772.9
3772.9
3772.9
3772.9
3772.9
3772.91
3772.91
3772.91
3772.91
3772.91
3772.91
3772.91
3772.91
3772.91
3772.91
3772.92
3772.92
3772.92
3772.92
3772.92
3772.92
3772.92
3772.92
3772.93
3772.93
3772.93
3772.93
3772.93
3772.93
3772.93
3772.93
3772.93
3772.93
3772.93
3772.93
3772.93
3772.93
3772.93
3772.93
3772.93
3772.93
3772.93
3772.93
3772.93
3772.93
3772.93
3772.93
3772.93
3772.93
3772.93
3772.93
3772.93
3772.93
3772.93
3772.93
3772.93
3772.93
3772.93
3772.93
3772.93
3772.93
3772.92
3772.92
3772.92
3772.92
3772.92
3772.92
3772.92
3772.92
3772.92
3772.92
3772.92
3772.92
3772.92
3772.92
3772.92
3772.92
3772.92
3772.92
3772.92
3772.92
3772.92
3772.92
3772.92
3772.92
3772.92
3772.92
3772.92
3772.92
3772.92
3772.92
3772.92
3772.92
3772.92
3772.92
3772.92
3772.92
3772.92
3772.92
3772.92
3772.92
3772.92
3772.92
3772.92
3772.92
3772.92
3772.92
3772.92
3772.92
3772.92
3772.92
3772.92
3772.92
3772.92
3772.92
3772.92
3772.92
3772.92
3772.92
3772.92
3772.92
3772.92
3772.92
3772.92
3772.92
3772.92
3772.92
3772.92
3772.92
3772.92
3772.92
3772.92
3772.92
3772.92
3772.92
3772.92
3772.92
3772.92
3772.92
3772.92
3772.92
3772.92
3772.92
3772.92
3772.92
3772.92
3772.92
3772.93
3772.93
3772.93
3772.93
3772.93
3772.93
3772.93
3772.93
3772.93
3772.93
3772.93
3772.93
3772.93
3772.93
3772.93
3772.93
3772.93
3772.93
3772.93
3772.93
3772.93
3772.93
3772.93
3772.93
3772.93
3772.93
3772.93
3772.93
3772.93
3772.93
3772.93
3772.93
3772.93
3772.93
3772.93
3772.93
3772.93
3772.93
3772.93
3772.93
3772.93
3772.93
3772.93
3772.93
3772.93
3772.93
3772.93
3772.93
3772.93
3772.93
3772.93
3772.93
3772.93
3772.93
3772.93
3772.93
3772.93
3772.93
3772.93
3772.93
3772.93
3772.93
3772.93
3772.93
3772.93
3772.93
3772.93
3772.93
3772.93
3772.93
3772.93
3772.93
3772.93
3772.93
3772.93
3772.93
3772.93
3772.93
3772.93
3772.93
3772.93
3772.93
3772.93
3772.93
3772.93
3772.93
3772.93
3772.93
3772.93
3772.93
3772.93
3772.93
3772.93
3772.93
3772.93
3772.93
3772.93
3772.93
3772.93
3772.93
3772.93
3772.93
3772.93
3772.93
3772.93
3772.93
3772.93
3772.93
3772.93
3772.93
3772.93
3772.93
3772.93
3772.93
3772.93
3772.93
3772.93
3772.93
3772.93
3772.93
3772.93
3772.93
3772.93
3772.93
3772.93
3772.93
3772.93
3772.93
3772.93
3772.93
3772.93
3772.93
3772.93
3772.93
3879.56
3863.23
3852.25
3842.24
3832.41
3823
3814.04
3805.52
3797.43
3789.75
3782.48
3775.61
3769.11
3762.99
3757.22
3751.79
3746.7
3741.91
3737.43
3733.23
3729.29
3725.6
3722.15
3718.92
3715.9
3713.07
3710.43
3707.97
3705.66
3703.51
3701.5
3699.63
3697.89
3696.26
3694.75
3693.34
3692.02
3690.8
3689.67
3688.61
3687.63
3686.72
3685.88
3685.1
3684.37
3683.7
3683.08
3682.5
3681.97
3681.47
3681.01
3680.59
3680.19
3679.83
3679.49
3679.17
3678.88
3678.61
3678.36
3678.13
3677.91
3677.71
3677.52
3677.34
3677.17
3677.02
3676.87
3676.73
3676.6
3676.48
3676.37
3676.26
3676.16
3676.06
3675.97
3675.89
3675.81
3675.73
3675.66
3675.6
3675.54
3675.48
3675.42
3675.37
3675.33
3675.29
3675.25
3675.21
3675.18
3675.15
3675.12
3675.09
3675.07
3675.05
3675.03
3675.01
3674.99
3674.98
3674.97
3674.96
3674.95
3674.94
3674.93
3674.92
3674.92
3674.91
3674.91
3674.91
3674.9
3674.9
3674.9
3674.9
3674.89
3674.89
3674.89
3674.89
3674.89
3674.89
3674.89
3674.89
3674.89
3674.88
3674.88
3674.88
3674.88
3674.88
3674.88
3674.88
3674.87
3674.87
3674.87
3674.87
3674.87
3674.87
3674.87
3674.86
3674.86
3674.86
3674.86
3674.86
3674.86
3674.86
3674.86
3674.85
3674.85
3674.85
3674.85
3674.85
3674.85
3674.85
3674.85
3674.85
3674.85
3674.84
3674.84
3674.84
3674.84
3674.84
3674.84
3674.84
3674.84
3674.84
3674.84
3674.84
3674.84
3674.84
3674.83
3674.83
3674.83
3674.83
3674.83
3674.83
3674.83
3674.83
3674.83
3674.83
3674.83
3674.83
3674.83
3674.83
3674.83
3674.83
3674.83
3674.83
3674.83
3674.83
3674.83
3674.83
3674.83
3674.83
3674.83
3674.83
3674.83
3674.83
3674.83
3674.82
3674.82
3674.82
3674.82
3674.82
3674.82
3674.82
3674.82
3674.81
3674.81
3674.81
3674.81
3674.81
3674.81
3674.81
3674.81
3674.81
3674.8
3674.8
3674.8
3674.8
3674.8
3674.8
3674.8
3674.8
3674.8
3674.8
3674.8
3674.8
3674.81
3674.81
3674.81
3674.81
3674.81
3674.81
3674.81
3674.81
3674.81
3674.81
3674.82
3674.82
3674.82
3674.82
3674.82
3674.82
3674.82
3674.82
3674.83
3674.83
3674.83
3674.83
3674.83
3674.83
3674.83
3674.83
3674.83
3674.83
3674.83
3674.83
3674.83
3674.83
3674.83
3674.83
3674.83
3674.83
3674.83
3674.83
3674.83
3674.83
3674.83
3674.83
3674.83
3674.83
3674.83
3674.83
3674.83
3674.83
3674.83
3674.83
3674.83
3674.83
3674.83
3674.83
3674.83
3674.83
3674.82
3674.82
3674.82
3674.82
3674.82
3674.82
3674.82
3674.82
3674.82
3674.82
3674.82
3674.82
3674.82
3674.82
3674.82
3674.82
3674.82
3674.82
3674.82
3674.82
3674.82
3674.82
3674.82
3674.82
3674.82
3674.82
3674.82
3674.82
3674.82
3674.82
3674.82
3674.82
3674.82
3674.82
3674.82
3674.82
3674.82
3674.82
3674.82
3674.82
3674.82
3674.82
3674.82
3674.82
3674.82
3674.82
3674.82
3674.82
3674.82
3674.82
3674.82
3674.82
3674.82
3674.82
3674.82
3674.82
3674.82
3674.82
3674.82
3674.82
3674.82
3674.82
3674.82
3674.82
3674.82
3674.82
3674.82
3674.82
3674.82
3674.82
3674.82
3674.82
3674.82
3674.82
3674.82
3674.82
3674.82
3674.82
3674.82
3674.82
3674.82
3674.82
3674.82
3674.82
3674.82
3674.83
3674.83
3674.83
3674.83
3674.83
3674.83
3674.83
3674.83
3674.83
3674.83
3674.83
3674.83
3674.83
3674.83
3674.83
3674.83
3674.83
3674.83
3674.83
3674.83
3674.83
3674.83
3674.83
3674.83
3674.83
3674.83
3674.83
3674.83
3674.83
3674.83
3674.83
3674.83
3674.83
3674.83
3674.83
3674.83
3674.83
3674.83
3674.83
3674.83
3674.83
3674.83
3674.83
3674.83
3674.83
3674.83
3674.83
3674.83
3674.83
3674.83
3674.83
3674.83
3674.83
3674.83
3674.83
3674.83
3674.83
3674.83
3674.83
3674.83
3674.83
3674.83
3674.83
3674.83
3674.83
3674.83
3674.83
3674.83
3674.83
3674.83
3674.83
3674.83
3674.83
3674.83
3674.83
3674.83
3674.83
3674.83
3674.83
3674.83
3674.83
3674.83
3674.83
3674.83
3674.83
3674.83
3674.83
3674.83
3674.83
3674.83
3674.83
3674.83
3674.83
3674.83
3674.83
3674.83
3674.83
3674.83
3674.83
3674.83
3674.83
3674.83
3674.83
3674.83
3674.83
3674.83
3674.83
3674.83
3674.83
3674.83
3674.83
3674.83
3674.83
3674.83
3674.83
3674.83
3674.83
3674.83
3674.83
3674.83
3674.83
3674.83
3674.83
3674.83
3674.83
3674.83
3674.83
3674.83
3674.83
3674.83
3674.83
3674.83
3674.83
3674.83
3674.83
3781.04
3764.7
3753.73
3743.72
3733.89
3724.49
3715.54
3707.03
3698.96
3691.3
3684.04
3677.18
3670.71
3664.6
3658.85
3653.44
3648.36
3643.59
3639.12
3634.93
3631
3627.33
3623.89
3620.67
3617.65
3614.84
3612.2
3609.74
3607.45
3605.3
3603.3
3601.44
3599.7
3598.08
3596.57
3595.17
3593.86
3592.64
3591.51
3590.46
3589.49
3588.58
3587.74
3586.96
3586.24
3585.57
3584.95
3584.37
3583.84
3583.34
3582.89
3582.46
3582.07
3581.71
3581.37
3581.06
3580.77
3580.5
3580.25
3580.02
3579.8
3579.6
3579.41
3579.23
3579.07
3578.91
3578.76
3578.63
3578.5
3578.38
3578.26
3578.15
3578.05
3577.96
3577.87
3577.78
3577.7
3577.63
3577.56
3577.49
3577.43
3577.38
3577.32
3577.27
3577.23
3577.18
3577.15
3577.11
3577.08
3577.04
3577.02
3576.99
3576.97
3576.95
3576.93
3576.91
3576.89
3576.88
3576.87
3576.86
3576.85
3576.84
3576.83
3576.82
3576.82
3576.81
3576.81
3576.81
3576.8
3576.8
3576.8
3576.8
3576.79
3576.79
3576.79
3576.79
3576.79
3576.79
3576.79
3576.79
3576.78
3576.78
3576.78
3576.78
3576.78
3576.78
3576.78
3576.78
3576.77
3576.77
3576.77
3576.77
3576.77
3576.77
3576.77
3576.76
3576.76
3576.76
3576.76
3576.76
3576.76
3576.76
3576.75
3576.75
3576.75
3576.75
3576.75
3576.75
3576.75
3576.75
3576.75
3576.75
3576.75
3576.74
3576.74
3576.74
3576.74
3576.74
3576.74
3576.74
3576.74
3576.74
3576.74
3576.74
3576.74
3576.73
3576.73
3576.73
3576.73
3576.73
3576.73
3576.73
3576.73
3576.73
3576.73
3576.73
3576.73
3576.73
3576.73
3576.73
3576.73
3576.73
3576.73
3576.73
3576.73
3576.73
3576.73
3576.73
3576.73
3576.73
3576.73
3576.73
3576.73
3576.73
3576.73
3576.72
3576.72
3576.72
3576.72
3576.72
3576.72
3576.72
3576.72
3576.72
3576.71
3576.71
3576.71
3576.71
3576.71
3576.71
3576.71
3576.71
3576.71
3576.7
3576.7
3576.7
3576.7
3576.7
3576.7
3576.7
3576.7
3576.7
3576.7
3576.7
3576.71
3576.71
3576.71
3576.71
3576.71
3576.71
3576.71
3576.71
3576.71
3576.71
3576.72
3576.72
3576.72
3576.72
3576.72
3576.72
3576.72
3576.72
3576.73
3576.73
3576.73
3576.73
3576.73
3576.73
3576.73
3576.73
3576.73
3576.73
3576.73
3576.73
3576.73
3576.73
3576.73
3576.73
3576.73
3576.73
3576.73
3576.73
3576.73
3576.73
3576.73
3576.73
3576.73
3576.73
3576.73
3576.73
3576.73
3576.73
3576.73
3576.73
3576.73
3576.73
3576.73
3576.73
3576.73
3576.73
3576.72
3576.72
3576.72
3576.72
3576.72
3576.72
3576.72
3576.72
3576.72
3576.72
3576.72
3576.72
3576.72
3576.72
3576.72
3576.72
3576.72
3576.72
3576.72
3576.72
3576.72
3576.72
3576.72
3576.72
3576.72
3576.72
3576.72
3576.72
3576.72
3576.72
3576.72
3576.72
3576.72
3576.72
3576.72
3576.72
3576.72
3576.72
3576.72
3576.72
3576.72
3576.72
3576.72
3576.72
3576.72
3576.72
3576.72
3576.72
3576.72
3576.72
3576.72
3576.72
3576.72
3576.72
3576.72
3576.72
3576.72
3576.72
3576.72
3576.72
3576.72
3576.72
3576.72
3576.72
3576.72
3576.72
3576.72
3576.72
3576.72
3576.72
3576.72
3576.72
3576.72
3576.72
3576.72
3576.72
3576.72
3576.72
3576.72
3576.72
3576.72
3576.72
3576.72
3576.72
3576.73
3576.73
3576.73
3576.73
3576.73
3576.73
3576.73
3576.73
3576.73
3576.73
3576.73
3576.73
3576.73
3576.73
3576.73
3576.73
3576.73
3576.73
3576.73
3576.73
3576.73
3576.73
3576.73
3576.73
3576.73
3576.73
3576.73
3576.73
3576.73
3576.73
3576.73
3576.73
3576.73
3576.73
3576.73
3576.73
3576.73
3576.73
3576.73
3576.73
3576.73
3576.73
3576.73
3576.73
3576.73
3576.73
3576.73
3576.73
3576.73
3576.73
3576.73
3576.73
3576.73
3576.73
3576.73
3576.73
3576.73
3576.73
3576.73
3576.73
3576.73
3576.73
3576.73
3576.73
3576.73
3576.73
3576.73
3576.73
3576.73
3576.73
3576.73
3576.73
3576.73
3576.73
3576.73
3576.73
3576.73
3576.73
3576.73
3576.73
3576.73
3576.73
3576.73
3576.73
3576.73
3576.73
3576.73
3576.73
3576.73
3576.73
3576.73
3576.73
3576.73
3576.73
3576.73
3576.73
3576.73
3576.73
3576.73
3576.73
3576.73
3576.73
3576.73
3576.73
3576.73
3576.73
3576.73
3576.73
3576.73
3576.73
3576.73
3576.73
3576.73
3576.73
3576.73
3576.73
3576.73
3576.73
3576.73
3576.73
3576.73
3576.73
3576.73
3576.73
3576.73
3576.73
3576.73
3576.73
3576.73
3576.73
3576.73
3576.73
3576.73
3576.73
3576.73
3576.73
3682.37
3666.04
3655.06
3645.05
3635.23
3625.84
3616.91
3608.42
3600.36
3592.72
3585.49
3578.65
3572.2
3566.11
3560.38
3554.99
3549.94
3545.19
3540.73
3536.56
3532.65
3528.99
3525.56
3522.36
3519.36
3516.55
3513.93
3511.48
3509.2
3507.06
3505.07
3503.22
3501.49
3499.87
3498.37
3496.97
3495.67
3494.46
3493.34
3492.29
3491.32
3490.42
3489.58
3488.81
3488.09
3487.42
3486.8
3486.23
3485.7
3485.21
3484.76
3484.33
3483.94
3483.58
3483.25
3482.94
3482.65
3482.38
3482.13
3481.9
3481.69
3481.48
3481.3
3481.12
3480.95
3480.8
3480.65
3480.52
3480.39
3480.27
3480.15
3480.05
3479.95
3479.85
3479.76
3479.68
3479.6
3479.52
3479.45
3479.39
3479.33
3479.27
3479.22
3479.17
3479.12
3479.08
3479.04
3479.01
3478.97
3478.94
3478.92
3478.89
3478.87
3478.85
3478.83
3478.81
3478.79
3478.78
3478.77
3478.76
3478.75
3478.74
3478.73
3478.72
3478.72
3478.71
3478.71
3478.71
3478.7
3478.7
3478.7
3478.7
3478.69
3478.69
3478.69
3478.69
3478.69
3478.69
3478.69
3478.69
3478.68
3478.68
3478.68
3478.68
3478.68
3478.68
3478.68
3478.68
3478.67
3478.67
3478.67
3478.67
3478.67
3478.67
3478.67
3478.66
3478.66
3478.66
3478.66
3478.66
3478.66
3478.66
3478.65
3478.65
3478.65
3478.65
3478.65
3478.65
3478.65
3478.65
3478.65
3478.65
3478.65
3478.64
3478.64
3478.64
3478.64
3478.64
3478.64
3478.64
3478.64
3478.64
3478.64
3478.64
3478.64
3478.63
3478.63
3478.63
3478.63
3478.63
3478.63
3478.63
3478.63
3478.63
3478.63
3478.63
3478.63
3478.63
3478.63
3478.63
3478.63
3478.63
3478.63
3478.63
3478.63
3478.63
3478.63
3478.63
3478.63
3478.63
3478.63
3478.63
3478.63
3478.63
3478.63
3478.62
3478.62
3478.62
3478.62
3478.62
3478.62
3478.62
3478.62
3478.62
3478.61
3478.61
3478.61
3478.61
3478.61
3478.61
3478.61
3478.61
3478.61
3478.6
3478.6
3478.6
3478.6
3478.6
3478.6
3478.6
3478.6
3478.6
3478.6
3478.6
3478.61
3478.61
3478.61
3478.61
3478.61
3478.61
3478.61
3478.61
3478.61
3478.62
3478.62
3478.62
3478.62
3478.62
3478.62
3478.62
3478.62
3478.62
3478.63
3478.63
3478.63
3478.63
3478.63
3478.63
3478.63
3478.63
3478.63
3478.63
3478.63
3478.63
3478.63
3478.63
3478.63
3478.63
3478.63
3478.63
3478.63
3478.63
3478.63
3478.63
3478.63
3478.63
3478.63
3478.63
3478.63
3478.63
3478.63
3478.63
3478.63
3478.63
3478.63
3478.63
3478.63
3478.63
3478.63
3478.63
3478.62
3478.62
3478.62
3478.62
3478.62
3478.62
3478.62
3478.62
3478.62
3478.62
3478.62
3478.62
3478.62
3478.62
3478.62
3478.62
3478.62
3478.62
3478.62
3478.62
3478.62
3478.62
3478.62
3478.62
3478.62
3478.62
3478.62
3478.62
3478.62
3478.62
3478.62
3478.62
3478.62
3478.62
3478.62
3478.62
3478.62
3478.62
3478.62
3478.62
3478.62
3478.62
3478.62
3478.62
3478.62
3478.62
3478.62
3478.62
3478.62
3478.62
3478.62
3478.62
3478.62
3478.62
3478.62
3478.62
3478.62
3478.62
3478.62
3478.62
3478.62
3478.62
3478.62
3478.62
3478.62
3478.62
3478.62
3478.62
3478.62
3478.62
3478.62
3478.62
3478.62
3478.62
3478.62
3478.62
3478.62
3478.62
3478.62
3478.62
3478.62
3478.62
3478.62
3478.63
3478.63
3478.63
3478.63
3478.63
3478.63
3478.63
3478.63
3478.63
3478.63
3478.63
3478.63
3478.63
3478.63
3478.63
3478.63
3478.63
3478.63
3478.63
3478.63
3478.63
3478.63
3478.63
3478.63
3478.63
3478.63
3478.63
3478.63
3478.63
3478.63
3478.63
3478.63
3478.63
3478.63
3478.63
3478.63
3478.63
3478.63
3478.63
3478.63
3478.63
3478.63
3478.63
3478.63
3478.63
3478.63
3478.63
3478.63
3478.63
3478.63
3478.63
3478.63
3478.63
3478.63
3478.63
3478.63
3478.63
3478.63
3478.63
3478.63
3478.63
3478.63
3478.63
3478.63
3478.63
3478.63
3478.63
3478.63
3478.63
3478.63
3478.63
3478.63
3478.63
3478.63
3478.63
3478.63
3478.63
3478.63
3478.63
3478.63
3478.63
3478.63
3478.63
3478.63
3478.63
3478.63
3478.63
3478.63
3478.63
3478.63
3478.63
3478.63
3478.63
3478.63
3478.63
3478.63
3478.63
3478.63
3478.63
3478.63
3478.63
3478.63
3478.63
3478.63
3478.63
3478.63
3478.63
3478.63
3478.63
3478.63
3478.63
3478.63
3478.63
3478.63
3478.63
3478.63
3478.63
3478.63
3478.63
3478.63
3478.63
3478.63
3478.63
3478.63
3478.63
3478.63
3478.63
3478.63
3478.63
3478.63
3478.63
3478.63
3478.63
3478.63
3478.63
3478.63
3478.63
3583.57
3567.23
3556.25
3546.25
3536.44
3527.06
3518.14
3509.67
3501.63
3494.02
3486.82
3480.01
3473.58
3467.53
3461.83
3456.46
3451.43
3446.7
3442.27
3438.12
3434.23
3430.59
3427.18
3423.99
3421.01
3418.22
3415.61
3413.18
3410.91
3408.79
3406.81
3404.96
3403.24
3401.64
3400.15
3398.76
3397.47
3396.26
3395.15
3394.11
3393.14
3392.25
3391.41
3390.64
3389.93
3389.27
3388.65
3388.08
3387.56
3387.07
3386.62
3386.2
3385.81
3385.45
3385.12
3384.81
3384.52
3384.26
3384.01
3383.78
3383.57
3383.36
3383.18
3383
3382.84
3382.68
3382.54
3382.4
3382.28
3382.16
3382.04
3381.94
3381.84
3381.74
3381.65
3381.57
3381.49
3381.42
3381.35
3381.28
3381.22
3381.17
3381.12
3381.07
3381.02
3380.98
3380.94
3380.9
3380.87
3380.84
3380.81
3380.79
3380.76
3380.74
3380.72
3380.71
3380.69
3380.68
3380.67
3380.66
3380.65
3380.64
3380.63
3380.62
3380.62
3380.61
3380.61
3380.61
3380.6
3380.6
3380.6
3380.6
3380.59
3380.59
3380.59
3380.59
3380.59
3380.59
3380.59
3380.59
3380.58
3380.58
3380.58
3380.58
3380.58
3380.58
3380.58
3380.58
3380.57
3380.57
3380.57
3380.57
3380.57
3380.57
3380.56
3380.56
3380.56
3380.56
3380.56
3380.56
3380.56
3380.56
3380.55
3380.55
3380.55
3380.55
3380.55
3380.55
3380.55
3380.55
3380.55
3380.55
3380.54
3380.54
3380.54
3380.54
3380.54
3380.54
3380.54
3380.54
3380.54
3380.54
3380.54
3380.54
3380.54
3380.53
3380.53
3380.53
3380.53
3380.53
3380.53
3380.53
3380.53
3380.53
3380.53
3380.53
3380.53
3380.53
3380.53
3380.53
3380.53
3380.53
3380.53
3380.53
3380.53
3380.53
3380.53
3380.53
3380.53
3380.53
3380.53
3380.53
3380.53
3380.53
3380.53
3380.52
3380.52
3380.52
3380.52
3380.52
3380.52
3380.52
3380.52
3380.52
3380.51
3380.51
3380.51
3380.51
3380.51
3380.51
3380.51
3380.51
3380.51
3380.5
3380.5
3380.5
3380.5
3380.5
3380.5
3380.5
3380.5
3380.5
3380.5
3380.5
3380.51
3380.51
3380.51
3380.51
3380.51
3380.51
3380.51
3380.51
3380.51
3380.52
3380.52
3380.52
3380.52
3380.52
3380.52
3380.52
3380.52
3380.52
3380.53
3380.53
3380.53
3380.53
3380.53
3380.53
3380.53
3380.53
3380.53
3380.53
3380.53
3380.53
3380.53
3380.53
3380.53
3380.53
3380.53
3380.53
3380.53
3380.53
3380.53
3380.53
3380.53
3380.53
3380.53
3380.53
3380.53
3380.53
3380.53
3380.53
3380.53
3380.53
3380.53
3380.53
3380.53
3380.53
3380.53
3380.53
3380.52
3380.52
3380.52
3380.52
3380.52
3380.52
3380.52
3380.52
3380.52
3380.52
3380.52
3380.52
3380.52
3380.52
3380.52
3380.52
3380.52
3380.52
3380.52
3380.52
3380.52
3380.52
3380.52
3380.52
3380.52
3380.52
3380.52
3380.52
3380.52
3380.52
3380.52
3380.52
3380.52
3380.52
3380.52
3380.52
3380.52
3380.52
3380.52
3380.52
3380.52
3380.52
3380.52
3380.52
3380.52
3380.52
3380.52
3380.52
3380.52
3380.52
3380.52
3380.53
3380.53
3380.53
3380.53
3380.53
3380.53
3380.53
3380.53
3380.52
3380.52
3380.52
3380.52
3380.52
3380.52
3380.52
3380.52
3380.52
3380.52
3380.52
3380.52
3380.52
3380.52
3380.52
3380.52
3380.52
3380.52
3380.52
3380.52
3380.52
3380.52
3380.52
3380.53
3380.53
3380.53
3380.53
3380.53
3380.53
3380.53
3380.53
3380.53
3380.53
3380.53
3380.53
3380.53
3380.53
3380.53
3380.53
3380.53
3380.53
3380.53
3380.53
3380.53
3380.53
3380.53
3380.53
3380.53
3380.53
3380.53
3380.53
3380.53
3380.53
3380.53
3380.53
3380.53
3380.53
3380.53
3380.53
3380.53
3380.53
3380.53
3380.53
3380.53
3380.53
3380.53
3380.53
3380.53
3380.53
3380.53
3380.53
3380.53
3380.53
3380.53
3380.53
3380.53
3380.53
3380.53
3380.53
3380.53
3380.53
3380.53
3380.53
3380.53
3380.53
3380.53
3380.53
3380.53
3380.53
3380.53
3380.53
3380.53
3380.53
3380.53
3380.53
3380.53
3380.53
3380.53
3380.53
3380.53
3380.53
3380.53
3380.53
3380.53
3380.53
3380.53
3380.53
3380.53
3380.53
3380.53
3380.53
3380.53
3380.53
3380.53
3380.53
3380.53
3380.53
3380.53
3380.53
3380.53
3380.53
3380.53
3380.53
3380.53
3380.53
3380.53
3380.53
3380.53
3380.53
3380.53
3380.53
3380.53
3380.53
3380.53
3380.53
3380.53
3380.53
3380.53
3380.53
3380.53
3380.53
3380.53
3380.53
3380.53
3380.53
3380.53
3380.53
3380.53
3380.53
3380.53
3380.53
3380.53
3380.53
3380.53
3380.53
3380.53
3380.53
3380.53
3380.53
3380.53
3380.53
3484.62
3468.28
3457.3
3447.3
3437.5
3428.13
3419.24
3410.79
3402.78
3395.2
3388.03
3381.26
3374.86
3368.84
3363.18
3357.85
3352.84
3348.14
3343.74
3339.61
3335.75
3332.13
3328.74
3325.58
3322.61
3319.84
3317.25
3314.84
3312.58
3310.47
3308.51
3306.68
3304.97
3303.38
3301.9
3300.52
3299.24
3298.04
3296.93
3295.9
3294.94
3294.06
3293.23
3292.47
3291.76
3291.1
3290.49
3289.92
3289.4
3288.92
3288.47
3288.05
3287.67
3287.31
3286.98
3286.68
3286.39
3286.13
3285.88
3285.65
3285.44
3285.24
3285.06
3284.88
3284.72
3284.57
3284.42
3284.29
3284.16
3284.04
3283.93
3283.83
3283.73
3283.63
3283.54
3283.46
3283.38
3283.31
3283.24
3283.18
3283.12
3283.06
3283.01
3282.96
3282.92
3282.88
3282.84
3282.8
3282.77
3282.74
3282.71
3282.69
3282.66
3282.64
3282.62
3282.61
3282.59
3282.58
3282.57
3282.55
3282.54
3282.54
3282.53
3282.52
3282.52
3282.51
3282.51
3282.51
3282.5
3282.5
3282.5
3282.5
3282.49
3282.49
3282.49
3282.49
3282.49
3282.49
3282.49
3282.49
3282.48
3282.48
3282.48
3282.48
3282.48
3282.48
3282.48
3282.48
3282.47
3282.47
3282.47
3282.47
3282.47
3282.47
3282.46
3282.46
3282.46
3282.46
3282.46
3282.46
3282.46
3282.46
3282.45
3282.45
3282.45
3282.45
3282.45
3282.45
3282.45
3282.45
3282.45
3282.45
3282.44
3282.44
3282.44
3282.44
3282.44
3282.44
3282.44
3282.44
3282.44
3282.44
3282.44
3282.44
3282.44
3282.43
3282.43
3282.43
3282.43
3282.43
3282.43
3282.43
3282.43
3282.43
3282.43
3282.43
3282.43
3282.43
3282.43
3282.43
3282.43
3282.43
3282.43
3282.43
3282.43
3282.43
3282.43
3282.43
3282.43
3282.43
3282.43
3282.43
3282.43
3282.43
3282.43
3282.42
3282.42
3282.42
3282.42
3282.42
3282.42
3282.42
3282.42
3282.42
3282.41
3282.41
3282.41
3282.41
3282.41
3282.41
3282.41
3282.41
3282.41
3282.4
3282.4
3282.4
3282.4
3282.4
3282.4
3282.4
3282.4
3282.4
3282.4
3282.41
3282.41
3282.41
3282.41
3282.41
3282.41
3282.41
3282.41
3282.41
3282.41
3282.42
3282.42
3282.42
3282.42
3282.42
3282.42
3282.42
3282.42
3282.42
3282.43
3282.43
3282.43
3282.43
3282.43
3282.43
3282.43
3282.43
3282.43
3282.43
3282.43
3282.43
3282.43
3282.43
3282.43
3282.43
3282.43
3282.43
3282.43
3282.43
3282.43
3282.43
3282.43
3282.43
3282.43
3282.43
3282.43
3282.43
3282.43
3282.43
3282.43
3282.43
3282.43
3282.43
3282.43
3282.43
3282.43
3282.43
3282.42
3282.42
3282.42
3282.42
3282.42
3282.42
3282.42
3282.42
3282.42
3282.42
3282.42
3282.42
3282.42
3282.42
3282.42
3282.42
3282.42
3282.42
3282.42
3282.42
3282.42
3282.42
3282.42
3282.42
3282.42
3282.42
3282.42
3282.42
3282.42
3282.42
3282.42
3282.42
3282.42
3282.42
3282.42
3282.42
3282.42
3282.42
3282.42
3282.42
3282.42
3282.42
3282.42
3282.42
3282.42
3282.42
3282.42
3282.42
3282.43
3282.43
3282.43
3282.43
3282.43
3282.43
3282.43
3282.43
3282.43
3282.43
3282.43
3282.43
3282.43
3282.43
3282.43
3282.42
3282.42
3282.42
3282.42
3282.42
3282.42
3282.42
3282.42
3282.42
3282.42
3282.42
3282.42
3282.42
3282.42
3282.42
3282.42
3282.42
3282.43
3282.43
3282.43
3282.43
3282.43
3282.43
3282.43
3282.43
3282.43
3282.43
3282.43
3282.43
3282.43
3282.43
3282.43
3282.43
3282.43
3282.43
3282.43
3282.43
3282.43
3282.43
3282.43
3282.43
3282.43
3282.43
3282.43
3282.43
3282.43
3282.43
3282.43
3282.43
3282.43
3282.43
3282.43
3282.43
3282.43
3282.43
3282.43
3282.43
3282.43
3282.43
3282.43
3282.43
3282.43
3282.43
3282.43
3282.43
3282.43
3282.43
3282.43
3282.43
3282.43
3282.43
3282.43
3282.43
3282.43
3282.43
3282.43
3282.43
3282.43
3282.43
3282.43
3282.43
3282.43
3282.43
3282.43
3282.43
3282.43
3282.43
3282.43
3282.43
3282.43
3282.43
3282.43
3282.43
3282.43
3282.43
3282.43
3282.43
3282.43
3282.43
3282.43
3282.43
3282.43
3282.43
3282.43
3282.43
3282.43
3282.43
3282.43
3282.43
3282.43
3282.43
3282.43
3282.43
3282.43
3282.43
3282.43
3282.43
3282.43
3282.43
3282.43
3282.43
3282.43
3282.43
3282.43
3282.43
3282.43
3282.43
3282.43
3282.43
3282.43
3282.43
3282.43
3282.43
3282.43
3282.43
3282.43
3282.43
3282.43
3282.43
3282.43
3282.43
3282.43
3282.43
3282.43
3282.43
3282.43
3282.43
3282.43
3282.43
3282.43
3282.43
3282.43
3282.43
3282.43
3282.43
3282.43
3282.43
3385.54
3369.2
3358.21
3348.22
3338.42
3329.08
3320.2
3311.78
3303.81
3296.26
3289.12
3282.39
3276.04
3270.06
3264.43
3259.14
3254.17
3249.51
3245.13
3241.04
3237.2
3233.61
3230.25
3227.11
3224.17
3221.42
3218.85
3216.45
3214.22
3212.13
3210.18
3208.36
3206.67
3205.09
3203.62
3202.26
3200.99
3199.8
3198.7
3197.68
3196.73
3195.85
3195.03
3194.28
3193.57
3192.92
3192.32
3191.76
3191.24
3190.76
3190.31
3189.9
3189.52
3189.17
3188.84
3188.54
3188.26
3187.99
3187.75
3187.52
3187.31
3187.12
3186.93
3186.76
3186.6
3186.45
3186.31
3186.17
3186.05
3185.93
3185.82
3185.71
3185.61
3185.52
3185.43
3185.35
3185.28
3185.2
3185.13
3185.07
3185.01
3184.96
3184.91
3184.86
3184.81
3184.77
3184.73
3184.7
3184.67
3184.64
3184.61
3184.58
3184.56
3184.54
3184.52
3184.5
3184.49
3184.48
3184.46
3184.45
3184.44
3184.44
3184.43
3184.42
3184.42
3184.41
3184.41
3184.4
3184.4
3184.4
3184.4
3184.39
3184.39
3184.39
3184.39
3184.39
3184.39
3184.39
3184.39
3184.38
3184.38
3184.38
3184.38
3184.38
3184.38
3184.38
3184.38
3184.37
3184.37
3184.37
3184.37
3184.37
3184.37
3184.37
3184.36
3184.36
3184.36
3184.36
3184.36
3184.36
3184.36
3184.36
3184.35
3184.35
3184.35
3184.35
3184.35
3184.35
3184.35
3184.35
3184.35
3184.35
3184.34
3184.34
3184.34
3184.34
3184.34
3184.34
3184.34
3184.34
3184.34
3184.34
3184.34
3184.34
3184.34
3184.33
3184.33
3184.33
3184.33
3184.33
3184.33