/*--------------------------------*- C++ -*----------------------------------*\
| =========                 |                                                 |
| \\      /  F ield         | OpenFOAM: The Open Source CFD Toolbox           |
|  \\    /   O peration     | Version:  4.1                                   |
|   \\  /    A nd           | Web:      www.OpenFOAM.org                      |
|    \\/     M anipulation  |                                                 |
\*---------------------------------------------------------------------------*/
FoamFile
{
    version     2.0;
    format      ascii;
    class       surfaceScalarField;
    location    "0.1";
    object      phi;
}
// * * * * * * * * * * * * * * * * * * * * * * * * * * * * * * * * * * * * * //

dimensions      [0 3 -1 0 0 0 0];

internalField   nonuniform List<scalar> 
69430
(
1.61269e-05
1.05385e-06
1.51844e-05
9.40513e-07
1.42966e-05
8.84125e-07
1.34389e-05
8.56238e-07
1.26243e-05
8.11766e-07
1.18347e-05
7.87039e-07
1.10886e-05
7.43853e-07
1.03744e-05
7.11866e-07
9.69637e-06
6.75724e-07
9.0549e-06
6.39304e-07
8.44905e-06
6.03708e-07
7.87693e-06
5.69947e-07
7.34088e-06
5.33908e-07
6.8351e-06
5.03705e-07
6.36101e-06
4.72108e-07
5.91673e-06
4.42374e-07
5.50001e-06
4.14914e-07
5.11715e-06
3.81136e-07
4.75035e-06
3.65165e-07
4.41288e-06
3.35909e-07
4.10111e-06
3.10301e-07
3.80679e-06
2.92926e-07
3.53471e-06
2.70739e-07
3.28221e-06
2.51207e-07
3.04513e-06
2.35821e-07
2.82573e-06
2.18149e-07
2.62365e-06
2.00833e-07
2.43466e-06
1.87729e-07
2.25643e-06
1.76934e-07
2.09122e-06
1.63889e-07
1.93957e-06
1.50286e-07
1.79979e-06
1.3837e-07
1.66955e-06
1.28807e-07
1.54688e-06
1.21201e-07
1.43255e-06
1.1284e-07
1.32807e-06
1.02973e-07
1.23212e-06
9.44402e-08
1.14273e-06
8.79021e-08
1.05797e-06
8.32854e-08
9.78586e-07
7.79424e-08
9.05253e-07
7.19429e-08
8.3813e-07
6.57917e-08
7.76303e-07
6.05661e-08
7.184e-07
5.67221e-08
6.6398e-07
5.33251e-08
6.13274e-07
4.97031e-08
5.67545e-07
4.48225e-08
5.26303e-07
4.04326e-08
4.89655e-07
3.59372e-08
4.55141e-07
3.3898e-08
4.2224e-07
3.23772e-08
3.90917e-07
3.0886e-08
3.61666e-07
2.88938e-08
3.34642e-07
2.67403e-08
3.09407e-07
2.50154e-08
2.86212e-07
2.30309e-08
2.6496e-07
2.1136e-08
2.45334e-07
1.95477e-08
2.27567e-07
1.77189e-08
2.11165e-07
1.63765e-08
1.96257e-07
1.48964e-08
1.82485e-07
1.37682e-08
1.69569e-07
1.29134e-08
1.57292e-07
1.22731e-08
1.45609e-07
1.16717e-08
1.34603e-07
1.09851e-08
1.24425e-07
1.0145e-08
1.15188e-07
9.19086e-09
1.06856e-07
8.27329e-09
9.93204e-08
7.462e-09
9.24131e-08
6.82106e-09
8.59542e-08
6.36078e-09
7.98462e-08
5.9993e-09
7.40582e-08
5.67045e-09
6.86072e-08
5.32618e-09
6.3513e-08
4.96413e-09
5.88005e-08
4.57876e-09
5.4454e-08
4.211e-09
5.04378e-08
3.88047e-09
4.66999e-08
3.60334e-09
4.32205e-08
3.34737e-09
3.99824e-08
3.10963e-09
3.69605e-08
2.89785e-09
3.41408e-08
2.70055e-09
3.15206e-08
2.50665e-09
2.90964e-08
2.31644e-09
2.68709e-08
2.12359e-09
2.48353e-08
1.93953e-09
2.29806e-08
1.76433e-09
2.12917e-08
1.60395e-09
1.97498e-08
1.46214e-09
1.83355e-08
1.33929e-09
1.70312e-08
1.23382e-09
1.58174e-08
1.14732e-09
1.46807e-08
1.07393e-09
1.36122e-08
1.00911e-09
1.26036e-08
9.52408e-10
1.16498e-08
9.00443e-10
1.07481e-08
8.51038e-10
9.90181e-09
7.98168e-10
9.11528e-09
7.40896e-10
8.39368e-09
6.78395e-10
7.73688e-09
6.16034e-10
7.14194e-09
5.5664e-10
6.60175e-09
5.04411e-10
6.1069e-09
4.61664e-10
5.64742e-09
4.28948e-10
5.21491e-09
4.0473e-10
4.80291e-09
3.87014e-10
4.40833e-09
3.72438e-10
4.03178e-09
3.57277e-10
3.67508e-09
3.40287e-10
3.34167e-09
3.19819e-10
3.03374e-09
2.97087e-10
2.75281e-09
2.72749e-10
2.49853e-09
2.48616e-10
2.26944e-09
2.25786e-10
2.06324e-09
2.05069e-10
1.87733e-09
1.86769e-10
1.70928e-09
1.70659e-10
1.55842e-09
1.55e-10
1.42383e-09
1.40031e-10
1.30579e-09
1.24543e-10
1.20396e-09
1.09169e-10
1.11704e-09
9.48769e-11
1.04374e-09
8.16465e-11
9.8236e-10
6.99223e-11
9.31044e-10
5.98756e-11
8.87609e-10
5.18391e-11
8.50198e-10
4.55084e-11
8.17222e-10
4.06333e-11
7.87098e-10
3.72238e-11
7.58431e-10
3.51122e-11
7.30339e-10
3.37994e-11
7.02485e-10
3.27594e-11
6.74498e-10
3.20406e-11
6.46225e-10
3.14375e-11
6.17544e-10
3.09373e-11
5.88636e-10
3.02446e-11
5.59627e-10
2.94295e-11
5.30542e-10
2.86039e-11
5.01312e-10
2.78714e-11
4.7208e-10
2.70291e-11
4.42595e-10
2.64797e-11
4.12843e-10
2.59959e-11
3.8294e-10
2.54496e-11
3.53024e-10
2.48269e-11
3.23271e-10
2.40961e-11
2.93943e-10
2.31727e-11
2.65263e-10
2.21003e-11
2.37525e-10
2.08073e-11
2.1094e-10
1.93792e-11
1.85788e-10
1.77469e-11
1.62228e-10
1.60256e-11
1.40445e-10
1.41905e-11
1.20319e-10
1.25429e-11
1.01886e-10
1.09237e-11
8.51704e-11
9.33484e-12
7.01449e-11
7.82744e-12
5.68681e-11
6.30459e-12
4.50402e-11
5.12701e-12
3.4705e-11
3.93327e-12
2.57049e-11
2.92892e-12
1.80065e-11
1.97609e-12
1.14873e-11
1.16396e-12
6.08136e-12
4.30429e-13
1.74897e-12
-2.60898e-13
-1.57997e-12
-8.76005e-13
-4.06364e-12
-1.33442e-12
-5.78058e-12
-1.71743e-12
-6.8388e-12
-1.99642e-12
-7.36132e-12
-2.15782e-12
-7.4446e-12
-2.22874e-12
-7.1849e-12
-2.20916e-12
-6.66032e-12
-2.11683e-12
-5.94698e-12
-1.9532e-12
-5.10014e-12
-1.7391e-12
-4.2197e-12
-1.42861e-12
-3.08066e-12
-1.34578e-12
-1.94505e-12
-1.00582e-12
-7.36079e-13
-7.46476e-13
4.5778e-13
-4.02339e-13
1.98249e-12
-4.10443e-13
3.53472e-12
-1.2316e-13
5.20729e-12
5.95078e-14
6.97727e-12
2.5225e-13
8.91868e-12
3.51767e-13
1.10384e-11
4.21996e-13
1.33445e-11
4.56292e-13
1.58421e-11
4.51238e-13
1.85158e-11
4.22626e-13
2.13665e-11
3.48061e-13
2.43827e-11
2.36243e-13
2.75185e-11
1.13838e-13
3.07783e-11
-7.21501e-14
3.40799e-11
-2.39262e-13
3.73729e-11
-4.22706e-13
4.05808e-11
-5.98693e-13
4.36787e-11
-8.19326e-13
4.6574e-11
-1.01684e-12
4.92267e-11
-1.24079e-12
5.15112e-11
-1.40376e-12
5.34075e-11
-1.60607e-12
5.47553e-11
-1.70173e-12
5.55659e-11
-1.85524e-12
5.57706e-11
-1.97808e-12
5.53158e-11
-2.07584e-12
5.41606e-11
-2.15088e-12
5.2276e-11
-2.20387e-12
4.9647e-11
-2.23693e-12
4.62719e-11
-2.2516e-12
4.21627e-11
-2.24955e-12
3.73474e-11
-2.23474e-12
3.18658e-11
-2.20792e-12
2.57691e-11
-2.16903e-12
1.91203e-11
-2.12009e-12
1.20045e-11
-2.07526e-12
4.54221e-12
-2.06059e-12
-3.19531e-12
-2.02188e-12
-1.11003e-11
-1.99004e-12
-1.91062e-11
-1.9216e-12
-2.70777e-11
-1.88362e-12
-3.48908e-11
-1.86331e-12
-4.24352e-11
-1.85104e-12
-4.96085e-11
-1.84072e-12
-5.63146e-11
-1.83157e-12
-6.2466e-11
-1.82106e-12
-6.79999e-11
-1.79234e-12
-7.28257e-11
-1.78169e-12
-7.68847e-11
-1.76688e-12
-8.01272e-11
-1.74962e-12
-8.25243e-11
-1.72002e-12
-8.40642e-11
-1.67215e-12
-8.4757e-11
-1.59614e-12
-8.46428e-11
-1.47313e-12
-8.36553e-11
-1.42137e-12
-8.18341e-11
-1.34594e-12
-7.92335e-11
-1.24261e-12
-7.59245e-11
-1.1048e-12
-7.19646e-11
-9.5456e-13
-6.74526e-11
-7.58887e-13
-6.23969e-11
-6.15841e-13
-5.68962e-11
-4.40596e-13
-5.10353e-11
-2.52814e-13
-4.48934e-11
-6.08159e-14
-3.85536e-11
1.35797e-13
-3.21173e-11
3.54397e-13
-2.56444e-11
5.5356e-13
-1.92297e-11
7.68059e-13
-1.29298e-11
9.61838e-13
-6.81272e-12
1.14962e-12
-9.46815e-13
1.33489e-12
4.619e-12
1.50233e-12
9.83873e-12
1.65388e-12
1.46639e-11
1.79843e-12
1.90636e-11
1.92356e-12
2.30053e-11
2.03804e-12
2.64693e-11
2.13464e-12
2.94458e-11
2.21161e-12
3.19289e-11
2.26988e-12
3.39216e-11
2.30926e-12
3.54318e-11
2.3298e-12
3.6476e-11
2.33001e-12
3.70689e-11
2.31764e-12
3.72308e-11
2.29244e-12
3.69957e-11
2.24605e-12
3.6389e-11
2.19135e-12
3.54512e-11
2.11782e-12
3.42155e-11
2.03582e-12
3.27325e-11
1.93104e-12
3.10302e-11
1.82859e-12
2.91431e-11
1.72336e-12
2.71025e-11
1.61977e-12
2.49525e-11
1.50536e-12
2.27342e-11
1.38347e-12
2.04786e-11
1.2637e-12
1.82139e-11
1.14771e-12
1.59709e-11
1.03198e-12
1.37758e-11
9.19107e-13
1.16514e-11
8.10888e-13
9.6195e-12
7.05993e-13
7.69651e-12
6.07632e-13
5.89579e-12
5.16157e-13
4.2279e-12
4.3218e-13
2.70033e-12
3.55687e-13
1.31807e-12
2.86967e-13
8.31154e-14
2.26248e-13
-1.00486e-12
1.73515e-13
-1.94842e-12
1.28687e-13
-2.75202e-12
9.15123e-14
-3.42217e-12
6.20763e-14
-3.96627e-12
3.94929e-14
-4.39288e-12
2.34192e-14
-4.71148e-12
1.33515e-14
-4.93196e-12
8.67172e-15
-5.0646e-12
8.76901e-15
-5.11967e-12
1.30457e-14
-5.10735e-12
2.08423e-14
-5.03733e-12
3.14485e-14
-4.91895e-12
4.43396e-14
-4.76091e-12
5.89228e-14
-4.5705e-12
7.39663e-14
-4.35629e-12
9.09937e-14
-4.12416e-12
1.07702e-13
-3.87973e-12
1.24284e-13
-3.62788e-12
1.40464e-13
-3.37272e-12
1.56003e-13
-3.1176e-12
1.70715e-13
-2.86523e-12
1.84476e-13
-2.6177e-12
1.97225e-13
-2.3766e-12
2.08964e-13
-2.14309e-12
2.19751e-13
-1.918e-12
2.29728e-13
-1.70181e-12
2.38921e-13
-1.49486e-12
2.47578e-13
-1.29734e-12
2.55818e-13
-1.10931e-12
2.63779e-13
-9.30773e-13
2.71614e-13
-7.61633e-13
2.79352e-13
-6.01862e-13
2.87171e-13
-4.51299e-13
2.94993e-13
-3.10104e-13
3.03149e-13
-1.78299e-13
3.11486e-13
-5.63637e-14
3.20404e-13
5.52733e-14
3.29782e-13
1.55809e-13
3.39899e-13
2.44704e-13
3.50387e-13
3.21638e-13
3.60913e-13
3.85449e-13
3.722e-13
4.35435e-13
3.83681e-13
4.71659e-13
3.94482e-13
4.94842e-13
4.03854e-13
5.06404e-13
4.11019e-13
5.08575e-13
4.15102e-13
5.04251e-13
4.15408e-13
4.97069e-13
4.11176e-13
4.90304e-13
4.02741e-13
4.90344e-13
3.87085e-13
4.99686e-13
3.68086e-13
5.22168e-13
3.44492e-13
5.60766e-13
3.17257e-13
6.17008e-13
2.87934e-13
6.91773e-13
2.57311e-13
7.84415e-13
2.27019e-13
8.93623e-13
1.97895e-13
1.0176e-12
1.70589e-13
1.14842e-12
1.51311e-13
1.2858e-12
1.3272e-13
1.42425e-12
1.20004e-13
1.55899e-12
1.12712e-13
1.68485e-12
1.11314e-13
1.79911e-12
1.13482e-13
1.89624e-12
1.22155e-13
1.97311e-12
1.3499e-13
2.02648e-12
1.52178e-13
2.05309e-12
1.73755e-13
2.05393e-12
1.95541e-13
2.02551e-12
2.21985e-13
1.96882e-12
2.48595e-13
1.8861e-12
2.74079e-13
1.78019e-12
2.97797e-13
1.65537e-12
3.18233e-13
1.51967e-12
3.31535e-13
1.37702e-12
3.41714e-13
1.23461e-12
3.45401e-13
1.09834e-12
3.43779e-13
9.72527e-13
3.38276e-13
8.58949e-13
3.31352e-13
7.56619e-13
3.25627e-13
6.62616e-13
3.22926e-13
5.74327e-13
3.22831e-13
4.89203e-13
3.25174e-13
4.08302e-13
3.26257e-13
3.37297e-13
3.21385e-13
2.84445e-13
3.07904e-13
2.6203e-13
2.81734e-13
2.83798e-13
2.41368e-13
3.51249e-13
1.99027e-13
4.83676e-13
1.36901e-13
6.77603e-13
7.77573e-14
9.29717e-13
2.14285e-14
1.22948e-12
-2.48324e-14
1.55832e-12
-5.29569e-14
1.89138e-12
-5.66544e-14
2.20326e-12
-3.53194e-14
2.47081e-12
8.81196e-15
2.67627e-12
7.04066e-14
2.80647e-12
1.44935e-13
2.84383e-12
2.36803e-13
2.77568e-12
3.41186e-13
2.58971e-12
4.57711e-13
2.27252e-12
5.8752e-13
1.82606e-12
7.15288e-13
1.22005e-12
8.73227e-13
4.83203e-13
1.0024e-12
-3.77833e-13
1.1248e-12
-1.34083e-12
1.22495e-12
-2.37545e-12
1.2946e-12
-3.43639e-12
1.31887e-12
-4.42733e-12
1.24662e-12
-5.3329e-12
1.15885e-12
-6.10885e-12
1.02658e-12
-6.73691e-12
8.75757e-13
-7.18935e-12
6.96873e-13
-7.46042e-12
5.11884e-13
-7.59362e-12
3.69914e-13
-7.5624e-12
2.01008e-13
-7.34331e-12
8.00098e-15
-6.95381e-12
-1.67853e-13
-6.37944e-12
-3.5885e-13
-5.57303e-12
-5.97234e-13
-4.55353e-12
-8.17469e-13
-3.39214e-12
-9.66844e-13
-2.176e-12
-1.02974e-12
-1.02388e-12
-9.7409e-13
-2.76159e-14
-8.27833e-13
7.84352e-13
-6.53137e-13
1.42782e-12
-4.95357e-13
1.97506e-12
-4.09709e-13
2.47643e-12
-3.75122e-13
3.01642e-12
-4.2525e-13
3.63206e-12
-5.11716e-13
4.32036e-12
-5.96096e-13
5.02446e-12
-6.22373e-13
5.69331e-12
-5.98433e-13
6.20659e-12
-4.52846e-13
6.53402e-12
-2.75817e-13
6.66888e-12
-9.2433e-14
6.60012e-12
1.04094e-13
6.34199e-12
2.86648e-13
5.9923e-12
3.73257e-13
5.55947e-12
4.52603e-13
4.96858e-12
6.08177e-13
4.12005e-12
8.6496e-13
3.00933e-12
1.12801e-12
1.64006e-12
1.38914e-12
3.38269e-13
1.32606e-12
-9.30387e-13
1.29912e-12
-2.02732e-12
1.13544e-12
-2.85116e-12
8.72142e-13
-3.43521e-12
6.43786e-13
-3.91519e-12
5.52517e-13
-4.55693e-12
7.28921e-13
-5.4067e-12
9.52407e-13
-6.3822e-12
1.09468e-12
-7.35446e-12
1.10873e-12
-8.10194e-12
9.02086e-13
-8.48965e-12
5.60755e-13
-8.5143e-12
2.15735e-13
-8.2415e-12
-6.32166e-14
-7.82376e-12
-1.90579e-13
-7.40931e-12
-1.69935e-13
-6.8691e-12
-2.79539e-13
-5.98814e-12
-6.05372e-13
-4.52311e-12
-1.17583e-12
-2.54832e-12
-1.67381e-12
1.02897e-13
-2.33979e-12
2.76745e-12
-2.34513e-12
5.46085e-12
-2.36786e-12
7.39098e-12
-1.6009e-12
8.28126e-12
-5.59269e-13
8.63907e-12
-2.75752e-14
8.55369e-12
4.12481e-13
8.40865e-12
4.67097e-13
8.2922e-12
4.31127e-13
8.24605e-12
3.51802e-13
8.20259e-12
3.3779e-13
8.19309e-12
2.9117e-13
8.53624e-12
-7.57019e-14
8.91614e-12
-1.2802e-13
9.24661e-12
-9.5183e-14
9.31529e-12
1.49281e-13
8.92896e-12
5.85367e-13
8.05512e-12
1.0546e-12
6.83857e-12
1.37788e-12
5.67114e-12
1.31009e-12
4.82941e-12
9.6528e-13
4.43895e-12
4.95263e-13
4.42543e-12
1.00615e-13
4.42678e-12
6.82043e-14
4.21196e-12
2.67511e-13
3.79165e-12
4.57128e-13
3.41996e-12
3.93663e-13
3.13894e-12
2.8911e-13
2.89318e-12
2.40782e-13
2.69417e-12
1.82225e-13
2.57954e-12
8.71446e-14
2.47753e-12
6.45279e-14
2.3445e-12
8.6779e-14
2.26129e-12
2.90204e-14
2.59835e-12
-3.98603e-13
2.69904e-12
-1.6825e-13
2.77525e-12
-1.49223e-13
2.63665e-12
6.13202e-14
2.99619e-12
-4.40361e-13
2.57661e-12
3.3571e-13
1.50935e-12
9.80876e-13
-1.19649e-13
1.54112e-12
-4.12735e-13
2.0491e-13
-2.98114e-12
1.61316e-05
2.0926e-06
1.51957e-05
1.87369e-06
1.43077e-05
1.76598e-06
1.34482e-05
1.71192e-06
1.26287e-05
1.62684e-06
1.18408e-05
1.57053e-06
1.10913e-05
1.48915e-06
1.03767e-05
1.42238e-06
9.69874e-06
1.34972e-06
9.05661e-06
1.27748e-06
8.45003e-06
1.20641e-06
7.87869e-06
1.13744e-06
7.34098e-06
1.0679e-06
6.83443e-06
1.00667e-06
6.36011e-06
9.43011e-07
5.91886e-06
8.80353e-07
5.50153e-06
8.29138e-07
5.1127e-06
7.67012e-07
4.75103e-06
7.2404e-07
4.4133e-06
6.70976e-07
4.09941e-06
6.21661e-07
3.80619e-06
5.83721e-07
3.5332e-06
5.4139e-07
3.28054e-06
5.01567e-07
3.04508e-06
4.69011e-07
2.82579e-06
4.35158e-07
2.62209e-06
4.02235e-07
2.43268e-06
3.74779e-07
2.25645e-06
3.50749e-07
2.09212e-06
3.25739e-07
1.93981e-06
3.00044e-07
1.79879e-06
2.76783e-07
1.66804e-06
2.56895e-07
1.5458e-06
2.40733e-07
1.43287e-06
2.23048e-07
1.3281e-06
2.05025e-07
1.23131e-06
1.88523e-07
1.14095e-06
1.75605e-07
1.05662e-06
1.65023e-07
9.77776e-07
1.54285e-07
9.0538e-07
1.41943e-07
8.38328e-07
1.30577e-07
7.75849e-07
1.20921e-07
7.17824e-07
1.1278e-07
6.63739e-07
1.05609e-07
6.13992e-07
9.78225e-08
5.68388e-07
8.89759e-08
5.27305e-07
8.02398e-08
4.89573e-07
7.25648e-08
4.54509e-07
6.80217e-08
4.21446e-07
6.46559e-08
3.90223e-07
6.14683e-08
3.61336e-07
5.727e-08
3.34437e-07
5.32434e-08
3.09324e-07
4.98332e-08
2.86251e-07
4.58922e-08
2.65052e-07
4.21922e-08
2.45545e-07
3.89655e-08
2.27736e-07
3.54781e-08
2.11313e-07
3.27741e-08
1.96208e-07
2.99909e-08
1.82326e-07
2.76435e-08
1.69297e-07
2.59301e-08
1.56992e-07
2.45547e-08
1.45367e-07
2.32547e-08
1.34507e-07
2.17827e-08
1.24509e-07
2.00576e-08
1.15338e-07
1.82518e-08
1.06988e-07
1.64887e-08
9.93875e-08
1.49049e-08
9.2378e-08
1.3652e-08
8.58398e-08
1.27017e-08
7.96954e-08
1.19305e-08
7.39037e-08
1.12364e-08
6.84881e-08
1.05064e-08
6.3443e-08
9.7678e-09
5.87574e-08
9.01967e-09
5.44103e-08
8.31312e-09
5.03771e-08
7.67089e-09
4.66398e-08
7.10247e-09
4.31644e-08
6.59102e-09
3.99238e-08
6.12634e-09
3.69019e-08
5.705e-09
3.4092e-08
5.30545e-09
3.1486e-08
4.91815e-09
2.90791e-08
4.53932e-09
2.68637e-08
4.16547e-09
2.48354e-08
3.80446e-09
2.29825e-08
3.46377e-09
2.12894e-08
3.15278e-09
1.97386e-08
2.87729e-09
1.83113e-08
2.63892e-09
1.69922e-08
2.43263e-09
1.57696e-08
2.25631e-09
1.46294e-08
2.10673e-09
1.35594e-08
1.97731e-09
1.25497e-08
1.86548e-09
1.15981e-08
1.76042e-09
1.07025e-08
1.65963e-09
9.86503e-09
1.55324e-09
9.08907e-09
1.43885e-09
8.3759e-09
1.31802e-09
7.72435e-09
1.19853e-09
7.13105e-09
1.08549e-09
6.58948e-09
9.86253e-10
6.09143e-09
9.04847e-10
5.62836e-09
8.42122e-10
5.19298e-09
7.95292e-10
4.78057e-09
7.59764e-10
4.38756e-09
7.30962e-10
4.01451e-09
7.01003e-10
3.66341e-09
6.67159e-10
3.33621e-09
6.27743e-10
3.03443e-09
5.84363e-10
2.75878e-09
5.38416e-10
2.50867e-09
4.92989e-10
2.28253e-09
4.50083e-10
2.07788e-09
4.11422e-10
1.89302e-09
3.76478e-10
1.72627e-09
3.44993e-10
1.57531e-09
3.15863e-10
1.44313e-09
2.83996e-10
1.32671e-09
2.54243e-10
1.22504e-09
2.2519e-10
1.13763e-09
1.97337e-10
1.06284e-09
1.71827e-10
9.99629e-10
1.48532e-10
9.45183e-10
1.29421e-10
8.98684e-10
1.12871e-10
8.57818e-10
1.001e-10
8.21685e-10
8.94754e-11
7.88724e-10
8.17019e-11
7.57706e-10
7.63085e-11
7.27815e-10
7.24134e-11
6.98269e-10
6.94846e-11
6.68849e-10
6.70324e-11
6.39628e-10
6.45875e-11
6.105e-10
6.23357e-11
5.81623e-10
5.97421e-11
5.52868e-10
5.71807e-11
5.24128e-10
5.47607e-11
4.95331e-10
5.25671e-11
4.66331e-10
5.04835e-11
4.36917e-10
4.89949e-11
4.07348e-10
4.74161e-11
3.78052e-10
4.54579e-11
3.48815e-10
4.37599e-11
3.19781e-10
4.19337e-11
2.91254e-10
3.97468e-11
2.63312e-10
3.74632e-11
2.36297e-10
3.47568e-11
2.10318e-10
3.19394e-11
1.85774e-10
2.86493e-11
1.62717e-10
2.53484e-11
1.41314e-10
2.18825e-11
1.21578e-10
1.87048e-11
1.03405e-10
1.57616e-11
8.68969e-11
1.28386e-11
7.19919e-11
1.01466e-11
5.87998e-11
7.39239e-12
4.72752e-11
5.09925e-12
3.6989e-11
3.26092e-12
2.77891e-11
1.80923e-12
1.98437e-11
2.66147e-13
1.33451e-11
-1.31066e-12
7.86018e-12
-2.35856e-12
3.42074e-12
-3.39584e-12
-2.04325e-13
-4.12431e-12
-2.96002e-12
-4.7557e-12
-4.95884e-12
-5.20741e-12
-6.32777e-12
-5.4374e-12
-7.08044e-12
-5.54629e-12
-7.38734e-12
-5.40442e-12
-7.33788e-12
-5.09231e-12
-6.99452e-12
-4.65392e-12
-6.43538e-12
-4.07335e-12
-5.75545e-12
-3.35469e-12
-4.96759e-12
-2.53467e-12
-4.02262e-12
-1.99646e-12
-2.87318e-12
-1.25586e-12
-1.62323e-12
-5.02143e-13
-3.5759e-13
4.09771e-13
1.06781e-12
8.0904e-13
2.65897e-12
1.47848e-12
4.38013e-12
2.04955e-12
6.22471e-12
2.60404e-12
8.24704e-12
2.96676e-12
1.04558e-11
3.23884e-12
1.28896e-11
3.37544e-12
1.55349e-11
3.41413e-12
1.83486e-11
3.39128e-12
2.12924e-11
3.26753e-12
2.4408e-11
2.96612e-12
2.76126e-11
2.62695e-12
3.09935e-11
2.02138e-12
3.43715e-11
1.49251e-12
3.77336e-11
8.37178e-13
4.09662e-11
1.77409e-13
4.41393e-11
-7.20268e-13
4.70897e-11
-1.55313e-12
4.97976e-11
-2.50653e-12
5.21526e-11
-3.39507e-12
5.3943e-11
-4.20627e-12
5.52904e-11
-5.11442e-12
5.60711e-11
-6.02296e-12
5.62309e-11
-6.89615e-12
5.57169e-11
-7.72131e-12
5.44918e-11
-8.49642e-12
5.25345e-11
-9.21746e-12
4.98313e-11
-9.872e-12
4.63814e-11
-1.04532e-11
4.21956e-11
-1.09527e-11
3.73131e-11
-1.13825e-11
3.1762e-11
-1.1713e-11
2.5613e-11
-1.19693e-11
1.8933e-11
-1.21321e-11
1.17897e-11
-1.22055e-11
4.31765e-12
-1.22691e-11
-3.44493e-12
-1.21656e-11
-1.13809e-11
-1.1998e-11
-1.93609e-11
-1.1733e-11
-2.72901e-11
-1.14055e-11
-3.50654e-11
-1.10116e-11
-4.25777e-11
-1.0556e-11
-4.97202e-11
-1.00388e-11
-5.63927e-11
-9.46395e-12
-6.25036e-11
-8.83442e-12
-6.79916e-11
-8.11895e-12
-7.28051e-11
-7.36165e-12
-7.68642e-11
-6.58742e-12
-8.00736e-11
-5.83357e-12
-8.24448e-11
-5.00357e-12
-8.3953e-11
-4.14919e-12
-8.45944e-11
-3.26023e-12
-8.44988e-11
-2.20501e-12
-8.35121e-11
-1.40545e-12
-8.16897e-11
-5.75879e-13
-7.90633e-11
2.4621e-13
-7.57204e-11
1.10731e-12
-7.17757e-11
1.99708e-12
-6.73119e-11
2.90526e-12
-6.2279e-11
3.58863e-12
-5.68111e-11
4.30936e-12
-5.09312e-11
4.92786e-12
-4.47836e-11
5.55451e-12
-3.84434e-11
6.11672e-12
-3.19904e-11
6.63642e-12
-2.55827e-11
7.15299e-12
-1.91933e-11
7.51874e-12
-1.29041e-11
7.81143e-12
-6.79577e-12
8.05113e-12
-9.57891e-13
8.25871e-12
4.6053e-12
8.34285e-12
9.82674e-12
8.37699e-12
1.46485e-11
8.37333e-12
1.90362e-11
8.30623e-12
2.29696e-11
8.18323e-12
2.64277e-11
8.00868e-12
2.93997e-11
7.78495e-12
3.18794e-11
7.51785e-12
3.38695e-11
7.21247e-12
3.53773e-11
6.87382e-12
3.64156e-11
6.50664e-12
3.70065e-11
6.11905e-12
3.71764e-11
5.71555e-12
3.695e-11
5.2983e-12
3.63471e-11
4.89166e-12
3.54127e-11
4.46702e-12
3.41756e-11
4.05529e-12
3.26972e-11
3.61363e-12
3.10012e-11
3.20813e-12
2.91099e-11
2.83735e-12
2.70727e-11
2.47913e-12
2.49191e-11
2.14105e-12
2.2707e-11
1.79703e-12
2.04542e-11
1.49531e-12
1.81929e-11
1.22051e-12
1.59521e-11
9.69715e-13
1.37585e-11
7.439e-13
1.16368e-11
5.43706e-13
9.60534e-12
3.69072e-13
7.68235e-12
2.19656e-13
5.88146e-12
9.50186e-14
4.21378e-12
-5.70689e-15
2.68659e-12
-8.39789e-14
1.30476e-12
-1.41257e-13
7.03036e-14
-1.79016e-13
-1.01713e-12
-1.98981e-13
-1.96009e-12
-2.02883e-13
-2.76304e-12
-1.92581e-13
-3.43262e-12
-1.68962e-13
-3.97587e-12
-1.35337e-13
-4.40137e-12
-9.28088e-14
-4.71861e-12
-4.31226e-14
-4.93745e-12
1.20626e-14
-5.0681e-12
7.10668e-14
-5.12132e-12
1.33161e-13
-5.10684e-12
1.96008e-13
-5.03479e-12
2.59174e-13
-4.91386e-12
3.20707e-13
-4.75274e-12
3.80304e-13
-4.56107e-12
4.38226e-13
-4.34489e-12
4.93037e-13
-4.11092e-12
5.43904e-13
-3.8649e-12
5.90936e-13
-3.61177e-12
6.33994e-13
-3.35569e-12
6.73037e-13
-3.10007e-12
7.08128e-13
-2.84766e-12
7.39429e-13
-2.60058e-12
7.672e-13
-2.36044e-12
7.91788e-13
-2.1284e-12
8.13604e-13
-1.90525e-12
8.33161e-13
-1.69148e-12
8.50792e-13
-1.48734e-12
8.67083e-13
-1.29294e-12
8.82423e-13
-1.10823e-12
8.9718e-13
-9.33125e-13
9.11707e-13
-7.67402e-13
9.26082e-13
-6.10923e-13
9.40665e-13
-4.63502e-13
9.5535e-13
-3.25126e-13
9.70605e-13
-1.95795e-13
9.86198e-13
-7.58218e-14
1.00271e-12
3.44085e-14
1.01992e-12
1.34266e-13
1.03816e-12
2.23283e-13
1.0567e-12
3.0138e-13
1.07462e-12
3.67269e-13
1.09365e-12
4.20656e-13
1.11204e-12
4.61659e-13
1.12835e-12
4.90956e-13
1.14112e-12
5.0989e-13
1.14881e-12
5.20478e-13
1.14981e-12
5.2535e-13
1.14276e-12
5.27718e-13
1.12638e-12
5.30253e-13
1.10152e-12
5.38841e-13
1.06212e-12
5.55234e-13
1.01628e-12
5.82877e-13
9.61217e-13
6.24094e-13
8.99217e-13
6.80446e-13
8.32793e-13
7.52209e-13
7.64311e-13
8.38659e-13
6.9664e-13
9.38067e-13
6.31879e-13
1.04839e-12
5.71362e-13
1.16674e-12
5.2226e-13
1.28844e-12
4.79459e-13
1.41006e-12
4.47037e-13
1.52773e-12
4.2527e-13
1.63846e-12
4.13954e-13
1.7344e-12
4.15764e-13
1.81601e-12
4.25541e-13
1.879e-12
4.45758e-13
1.92069e-12
4.75081e-13
1.94043e-12
5.11557e-13
1.92996e-12
5.58637e-13
1.89596e-12
6.05757e-13
1.83726e-12
6.56236e-13
1.75565e-12
7.05716e-13
1.65402e-12
7.52303e-13
1.53634e-12
7.93246e-13
1.41012e-12
8.21013e-13
1.27896e-12
8.43262e-13
1.1491e-12
8.53835e-13
1.02576e-12
8.54672e-13
9.12295e-13
8.48871e-13
8.09974e-13
8.40769e-13
7.18063e-13
8.34764e-13
6.33892e-13
8.3443e-13
5.55175e-13
8.38776e-13
4.80805e-13
8.46297e-13
4.12125e-13
8.50699e-13
3.55539e-13
8.42108e-13
3.18622e-13
8.16595e-13
3.11309e-13
7.67651e-13
3.41343e-13
6.95908e-13
4.19624e-13
6.10401e-13
5.50531e-13
4.99838e-13
7.30784e-13
3.94671e-13
9.62045e-13
2.89802e-13
1.23724e-12
2.01273e-13
1.53415e-12
1.52349e-13
1.82953e-12
1.50425e-13
2.10369e-12
1.92619e-13
2.334e-12
2.79697e-13
2.50767e-12
3.9657e-13
2.61541e-12
5.3528e-13
2.63517e-12
7.13052e-13
2.55769e-12
9.1233e-13
2.3735e-12
1.133e-12
2.07288e-12
1.37648e-12
1.63697e-12
1.63663e-12
1.10592e-12
1.88662e-12
4.50763e-13
2.13673e-12
-3.12661e-13
2.36394e-12
-1.16862e-12
2.5531e-12
-2.07066e-12
2.66494e-12
-2.98097e-12
2.69342e-12
-3.85776e-12
2.58313e-12
-4.64557e-12
2.4015e-12
-5.32957e-12
2.15998e-12
-5.86632e-12
1.85589e-12
-6.26566e-12
1.53282e-12
-6.52275e-12
1.19813e-12
-6.62358e-12
8.9141e-13
-6.5746e-12
5.63598e-13
-6.43865e-12
2.73318e-13
-6.12885e-12
-8.72669e-14
-5.61335e-12
-4.96182e-13
-4.90944e-12
-9.35572e-13
-4.03286e-12
-1.3423e-12
-3.04325e-12
-1.61925e-12
-2.00403e-12
-1.74802e-12
-1.00192e-12
-1.67176e-12
-8.44688e-14
-1.45937e-12
7.07922e-13
-1.17807e-12
1.3225e-12
-8.62538e-13
1.84623e-12
-7.06034e-13
2.34951e-12
-6.71165e-13
2.91735e-12
-8.0715e-13
3.54207e-12
-9.70006e-13
4.20543e-12
-1.11379e-12
4.88755e-12
-1.17718e-12
5.46891e-12
-1.07075e-12
5.9766e-12
-8.69173e-13
6.29561e-12
-5.17637e-13
6.38391e-12
-1.17578e-13
6.29231e-12
2.48284e-13
6.02644e-12
5.95718e-13
5.62325e-12
8.13053e-13
5.06497e-12
1.04361e-12
4.4491e-12
1.25562e-12
3.65162e-12
1.69587e-12
2.68688e-12
2.13128e-12
1.46794e-12
2.65492e-12
1.92892e-13
2.65961e-12
-1.00782e-12
2.57318e-12
-1.97206e-12
2.19099e-12
-2.77054e-12
1.78287e-12
-3.43198e-12
1.44143e-12
-4.04999e-12
1.33249e-12
-4.86875e-12
1.73815e-12
-5.70336e-12
2.00759e-12
-6.65268e-12
2.29629e-12
-7.44019e-12
2.18089e-12
-7.95391e-12
1.73332e-12
-8.08363e-12
1.04172e-12
-7.84136e-12
3.57093e-13
-7.31534e-12
-1.73185e-13
-6.72003e-12
-3.39545e-13
-6.00822e-12
-4.06332e-13
-5.19617e-12
-5.89303e-13
-4.17822e-12
-1.09688e-12
-2.79687e-12
-2.00914e-12
-1.19878e-12
-2.70634e-12
6.39004e-13
-3.59739e-12
2.49579e-12
-3.61142e-12
4.27741e-12
-3.55224e-12
5.44614e-12
-2.17023e-12
6.35258e-12
-8.67914e-13
6.84858e-12
6.86983e-14
7.13156e-12
7.11857e-13
7.34656e-12
8.21137e-13
7.55213e-12
7.77194e-13
7.8323e-12
6.03299e-13
7.95373e-12
7.24573e-13
8.17034e-12
5.56853e-13
8.3973e-12
1.51316e-13
8.61237e-12
8.06305e-14
8.73308e-12
1.75375e-13
8.48889e-12
7.52532e-13
7.8843e-12
1.51428e-12
6.98063e-12
2.24889e-12
5.98364e-12
2.6304e-12
5.0378e-12
2.47754e-12
4.35217e-12
1.83922e-12
3.97728e-12
1.0253e-12
3.67109e-12
5.30604e-13
3.27713e-12
5.55941e-13
2.75977e-12
8.50169e-13
2.5217e-12
7.33506e-13
2.1837e-12
7.44755e-13
1.86708e-12
5.95738e-13
1.49187e-12
5.84483e-13
9.95152e-13
6.2765e-13
6.51878e-13
3.61534e-13
4.07212e-13
2.24155e-13
4.61387e-14
3.48469e-13
-5.1994e-14
1.54512e-14
-1.8201e-13
-3.91579e-13
-1.25627e-13
-3.56969e-13
-1.30183e-13
-2.85307e-13
-1.74804e-13
-4.13886e-14
-2.30611e-13
-5.3703e-13
-2.30213e-13
1.79271e-13
-8.20965e-13
1.41286e-12
-1.19817e-12
1.75681e-12
-1.11392e-12
-3.98831e-14
-6.6469e-12
1.6114e-05
3.13445e-06
1.51803e-05
2.80496e-06
1.42913e-05
2.65007e-06
1.34323e-05
2.56752e-06
1.26096e-05
2.44555e-06
1.18238e-05
2.35263e-06
1.10737e-05
2.23558e-06
1.03576e-05
2.13496e-06
9.67977e-06
2.02411e-06
9.03991e-06
1.91393e-06
8.43393e-06
1.80904e-06
7.86238e-06
1.70567e-06
7.32361e-06
1.60347e-06
6.82069e-06
1.5065e-06
6.345e-06
1.41576e-06
5.90268e-06
1.31986e-06
5.48883e-06
1.24033e-06
5.09964e-06
1.15367e-06
4.73922e-06
1.08207e-06
4.40398e-06
1.00394e-06
4.08873e-06
9.34745e-07
3.79547e-06
8.74907e-07
3.52414e-06
8.10712e-07
3.27173e-06
7.52007e-07
3.03694e-06
7.01854e-07
2.8178e-06
6.52347e-07
2.61442e-06
6.03625e-07
2.4261e-06
5.61073e-07
2.25065e-06
5.24127e-07
2.08672e-06
4.87528e-07
1.93413e-06
4.50431e-07
1.79327e-06
4.1539e-07
1.66282e-06
3.85048e-07
1.5419e-06
3.59318e-07
1.42938e-06
3.33208e-07
1.32437e-06
3.07679e-07
1.22726e-06
2.83296e-07
1.13691e-06
2.63649e-07
1.05322e-06
2.4647e-07
9.75368e-07
2.29963e-07
9.0321e-07
2.12021e-07
8.36048e-07
1.95768e-07
7.73411e-07
1.81713e-07
7.15656e-07
1.68823e-07
6.62257e-07
1.57442e-07
6.13044e-07
1.45618e-07
5.67671e-07
1.33084e-07
5.26563e-07
1.20236e-07
4.88188e-07
1.09977e-07
4.52729e-07
1.0266e-07
4.19625e-07
9.70756e-08
3.88766e-07
9.17671e-08
3.60133e-07
8.54577e-08
3.3334e-07
7.96911e-08
3.08494e-07
7.44209e-08
2.85569e-07
6.86331e-08
2.64408e-07
6.32295e-08
2.44999e-07
5.82971e-08
2.27319e-07
5.31153e-08
2.10891e-07
4.91825e-08
1.95783e-07
4.50913e-08
1.81731e-07
4.16924e-08
1.68621e-07
3.90319e-08
1.56336e-07
3.68221e-08
1.44828e-07
3.47296e-08
1.34121e-07
3.24382e-08
1.24229e-07
2.98784e-08
1.15165e-07
2.72222e-08
1.06859e-07
2.4681e-08
9.9199e-08
2.24307e-08
9.21145e-08
2.05837e-08
8.55267e-08
1.91203e-08
7.93729e-08
1.79011e-08
7.36236e-08
1.67913e-08
6.82425e-08
1.56847e-08
6.32298e-08
1.45721e-08
5.85661e-08
1.3472e-08
5.42342e-08
1.24332e-08
5.02105e-08
1.14846e-08
4.64744e-08
1.06323e-08
4.30029e-08
9.86177e-09
3.97701e-08
9.16514e-09
3.67606e-08
8.52831e-09
3.39658e-08
7.92249e-09
3.1377e-08
7.33817e-09
2.89873e-08
6.76939e-09
2.67885e-08
6.21371e-09
2.47714e-08
5.67985e-09
2.29233e-08
5.17859e-09
2.12294e-08
4.72154e-09
1.96739e-08
4.3151e-09
1.82416e-08
3.96039e-09
1.69181e-08
3.6518e-09
1.56899e-08
3.38591e-09
1.45454e-08
3.15802e-09
1.34734e-08
2.96102e-09
1.24673e-08
2.78782e-09
1.15211e-08
2.627e-09
1.06351e-08
2.47015e-09
9.80924e-09
2.30756e-09
9.04402e-09
2.13634e-09
8.33908e-09
1.95907e-09
7.69242e-09
1.78521e-09
7.10065e-09
1.62124e-09
6.55794e-09
1.47702e-09
6.0575e-09
1.35754e-09
5.59238e-09
1.26379e-09
5.15645e-09
1.19217e-09
4.74524e-09
1.13639e-09
4.35669e-09
1.08942e-09
3.98984e-09
1.04223e-09
3.64551e-09
9.90291e-10
3.32504e-09
9.31316e-10
3.02948e-09
8.67164e-10
2.75914e-09
7.99949e-10
2.51318e-09
7.33826e-10
2.29001e-09
6.71539e-10
2.08809e-09
6.14709e-10
1.90574e-09
5.62945e-10
1.74012e-09
5.17119e-10
1.59359e-09
4.70936e-10
1.46176e-09
4.26025e-10
1.3453e-09
3.8221e-10
1.2433e-09
3.39645e-10
1.15466e-09
2.99052e-10
1.07818e-09
2.617e-10
1.012e-09
2.28112e-10
9.55518e-10
1.99068e-10
9.06101e-10
1.74966e-10
8.62759e-10
1.55429e-10
8.24002e-10
1.39346e-10
7.88386e-10
1.27401e-10
7.55319e-10
1.18302e-10
7.23295e-10
1.12104e-10
6.92728e-10
1.06379e-10
6.62865e-10
1.0183e-10
6.33175e-10
9.77837e-11
6.03728e-10
9.38463e-11
5.74465e-10
8.96311e-11
5.45404e-10
8.54539e-11
5.16394e-10
8.1606e-11
4.87527e-10
7.79453e-11
4.58594e-10
7.46708e-11
4.2972e-10
7.19416e-11
4.01151e-10
6.89655e-11
3.7236e-10
6.6235e-11
3.43745e-10
6.34705e-11
3.15476e-10
6.05176e-11
2.87668e-10
5.72056e-11
2.60498e-10
5.37343e-11
2.34253e-10
4.9674e-11
2.09122e-10
4.5427e-11
1.85364e-10
4.05637e-11
1.63041e-10
3.57391e-11
1.42136e-10
3.08709e-11
1.22724e-10
2.63138e-11
1.04928e-10
2.19591e-11
8.87852e-11
1.76656e-11
7.42381e-11
1.37394e-11
6.11976e-11
9.89389e-12
4.93395e-11
6.89551e-12
3.86173e-11
4.43408e-12
2.96221e-11
1.80807e-12
2.2022e-11
-5.5332e-13
1.52852e-11
-2.40171e-12
9.68827e-12
-3.98306e-12
4.87512e-12
-5.19601e-12
1.16493e-12
-6.41868e-12
-1.7815e-12
-7.20861e-12
-4.00723e-12
-7.78293e-12
-5.59192e-12
-8.06394e-12
-6.66021e-12
-8.108e-12
-7.26721e-12
-7.85513e-12
-7.50417e-12
-7.34921e-12
-7.43601e-12
-6.66012e-12
-7.10506e-12
-5.79284e-12
-6.50948e-12
-4.79516e-12
-5.89593e-12
-3.45659e-12
-5.08088e-12
-2.58843e-12
-3.96507e-12
-1.62298e-12
-2.90191e-12
-2.99364e-13
-1.4177e-12
6.9916e-13
-2.88918e-15
1.66077e-12
1.56354e-12
2.65606e-12
3.373e-12
3.43625e-12
5.37052e-12
4.22665e-12
7.52301e-12
4.82102e-12
9.87642e-12
5.23318e-12
1.24584e-11
5.42907e-12
1.51529e-11
5.58114e-12
1.80297e-11
5.53218e-12
2.11632e-11
5.22724e-12
2.44439e-11
4.76891e-12
2.78232e-11
4.22647e-12
3.12658e-11
3.35367e-12
3.47566e-11
2.46681e-12
3.82239e-11
1.41812e-12
4.15716e-11
3.51799e-13
4.47393e-11
-9.99024e-13
4.76686e-11
-2.33257e-12
5.03471e-11
-3.87356e-12
5.25362e-11
-5.20389e-12
5.44148e-11
-6.71907e-12
5.57454e-11