/*--------------------------------*- C++ -*----------------------------------*\
| =========                 |                                                 |
| \\      /  F ield         | OpenFOAM: The Open Source CFD Toolbox           |
|  \\    /   O peration     | Version:  4.1                                   |
|   \\  /    A nd           | Web:      www.OpenFOAM.org                      |
|    \\/     M anipulation  |                                                 |
\*---------------------------------------------------------------------------*/
FoamFile
{
    version     2.0;
    format      ascii;
    class       volVectorField;
    location    "0.1";
    object      U;
}
// * * * * * * * * * * * * * * * * * * * * * * * * * * * * * * * * * * * * * //

dimensions      [0 1 -1 0 0 0 0];

internalField   nonuniform List<vector> 
35000
(
(0.0569565 0 0.00131788)
(0.0840646 0 0.00117812)
(0.0748038 0 0.00110767)
(0.0690111 0 0.00107209)
(0.0651323 0 0.00101697)
(0.0611463 0 0.000985558)
(0.057304 0 0.000931691)
(0.0536538 0 0.000892242)
(0.0501748 0 0.000845264)
(0.0468758 0 0.00080056)
(0.0437583 0 0.000756915)
(0.0408099 0 0.000715687)
(0.0380452 0 0.000666831)
(0.0354356 0 0.000631331)
(0.0329908 0 0.000592208)
(0.030703 0 0.000548662)
(0.0285394 0 0.000517922)
(0.0265407 0 0.000483381)
(0.024668 0 0.000456794)
(0.0229082 0 0.000415489)
(0.0212841 0 0.000395299)
(0.0197699 0 0.000375221)
(0.0183554 0 0.000339183)
(0.0170409 0 0.000312525)
(0.0158179 0 0.000298647)
(0.0146804 0 0.00027681)
(0.0136248 0 0.000254077)
(0.0126445 0 0.00023555)
(0.0117265 0 0.000219615)
(0.0108695 0 0.000207751)
(0.0100782 0 0.000192543)
(0.00934954 0 0.000176941)
(0.00866918 0 0.000161629)
(0.00803332 0 0.000151399)
(0.00744681 0 0.000143997)
(0.00690714 0 0.000131835)
(0.00640519 0 0.000120755)
(0.00593675 0 0.00011089)
(0.00550007 0 0.000102763)
(0.0050924 0 9.64811e-05)
(0.00471259 0 8.90854e-05)
(0.00435949 0 8.19604e-05)
(0.00404087 0 7.58306e-05)
(0.00374121 0 7.02153e-05)
(0.00345682 0 6.5882e-05)
(0.00319436 0 6.14039e-05)
(0.00295838 0 5.73043e-05)
(0.0027455 0 5.2268e-05)
(0.00254435 0 4.60635e-05)
(0.00236067 0 4.28294e-05)
(0.00219081 0 4.03904e-05)
(0.00203111 0 3.89159e-05)
(0.00187681 0 3.60694e-05)
(0.00173399 0 3.36748e-05)
(0.0016078 0 3.15076e-05)
(0.00148934 0 2.8833e-05)
(0.00137672 0 2.64949e-05)
(0.00127374 0 2.49939e-05)
(0.00117949 0 2.31967e-05)
(0.00109483 0 2.17331e-05)
(0.0010187 0 1.98678e-05)
(0.000946833 0 1.80371e-05)
(0.000879933 0 1.67406e-05)
(0.000816787 0 1.58278e-05)
(0.000756925 0 1.50162e-05)
(0.000700438 0 1.41684e-05)
(0.00064764 0 1.31616e-05)
(0.000599071 0 1.21551e-05)
(0.000555137 0 1.10778e-05)
(0.000515492 0 9.96879e-06)
(0.000479363 0 9.08304e-06)
(0.000445884 0 8.42283e-06)
(0.000414415 0 7.90305e-06)
(0.000384688 0 7.45107e-06)
(0.000356608 0 6.92834e-06)
(0.000330272 0 6.40586e-06)
(0.000305771 0 5.94303e-06)
(0.000283125 0 5.51146e-06)
(0.000262216 0 5.07757e-06)
(0.000242799 0 4.6237e-06)
(0.000224662 0 4.2461e-06)
(0.000207825 0 3.93565e-06)
(0.000192259 0 3.65898e-06)
(0.000177733 0 3.38579e-06)
(0.000164152 0 3.12832e-06)
(0.000151551 0 2.89283e-06)
(0.00013994 0 2.69063e-06)
(0.000129295 0 2.48328e-06)
(0.000119566 0 2.28191e-06)
(0.0001107 0 2.09542e-06)
(0.000102606 0 1.92834e-06)
(9.5202e-05 0 1.78587e-06)
(8.8404e-05 0 1.64803e-06)
(8.209e-05 0 1.5023e-06)
(7.62131e-05 0 1.38197e-06)
(7.07182e-05 0 1.28967e-06)
(6.55282e-05 0 1.21756e-06)
(6.06239e-05 0 1.14457e-06)
(5.59867e-05 0 1.06238e-06)
(5.16179e-05 0 9.7269e-07)
(4.75402e-05 0 8.77999e-07)
(4.37743e-05 0 7.8851e-07)
(4.03274e-05 0 7.05057e-07)
(3.7196e-05 0 6.27974e-07)
(3.43578e-05 0 5.62409e-07)
(3.17698e-05 0 5.10845e-07)
(2.93829e-05 0 4.73276e-07)
(2.71513e-05 0 4.46363e-07)
(2.50302e-05 0 4.25986e-07)
(2.30126e-05 0 4.11991e-07)
(2.10926e-05 0 3.94392e-07)
(1.92604e-05 0 3.72221e-07)
(1.75331e-05 0 3.4609e-07)
(1.59315e-05 0 3.19023e-07)
(1.44642e-05 0 2.91601e-07)
(1.31271e-05 0 2.66325e-07)
(1.19193e-05 0 2.45022e-07)
(1.08316e-05 0 2.29288e-07)
(9.85172e-06 0 2.15279e-07)
(8.96705e-06 0 2.0227e-07)
(8.16999e-06 0 1.91e-07)
(7.45684e-06 0 1.728e-07)
(6.82504e-06 0 1.59672e-07)
(6.27481e-06 0 1.4859e-07)
(5.80292e-06 0 1.35416e-07)
(5.40231e-06 0 1.21885e-07)
(5.06545e-06 0 1.0852e-07)
(4.78257e-06 0 9.85171e-08)
(4.54514e-06 0 8.80867e-08)
(4.34366e-06 0 7.97423e-08)
(4.16775e-06 0 7.17482e-08)
(3.99991e-06 0 6.50184e-08)
(3.85264e-06 0 6.09434e-08)
(3.72061e-06 0 5.75705e-08)
(3.58088e-06 0 5.57703e-08)
(3.4412e-06 0 5.32443e-08)
(3.30055e-06 0 4.93416e-08)
(3.15822e-06 0 4.46029e-08)
(3.01425e-06 0 3.98084e-08)
(2.86945e-06 0 3.61051e-08)
(2.72417e-06 0 3.36339e-08)
(2.57844e-06 0 3.23613e-08)
(2.43206e-06 0 3.16061e-08)
(2.28481e-06 0 3.17663e-08)
(2.13728e-06 0 3.11904e-08)
(1.98894e-06 0 2.91002e-08)
(1.84052e-06 0 2.7728e-08)
(1.69141e-06 0 2.66712e-08)
(1.54275e-06 0 2.56285e-08)
(1.39776e-06 0 2.49409e-08)
(1.25675e-06 0 2.40637e-08)
(1.12126e-06 0 2.30905e-08)
(9.91923e-07 0 2.17256e-08)
(8.69638e-07 0 2.01691e-08)
(7.55823e-07 0 1.84148e-08)
(6.51292e-07 0 1.63282e-08)
(5.55106e-07 0 1.43589e-08)
(4.6718e-07 0 1.24306e-08)
(3.88698e-07 0 1.06836e-08)
(3.18094e-07 0 8.77968e-09)
(2.54724e-07 0 7.00833e-09)
(1.99309e-07 0 6.09587e-09)
(1.51096e-07 0 6.26473e-09)
(1.09368e-07 0 5.28497e-09)
(7.37939e-08 0 3.27965e-09)
(4.39595e-08 0 1.92195e-09)
(1.98182e-08 0 8.47676e-10)
(6.17635e-10 0 1.68119e-10)
(-1.41783e-08 0 -8.53203e-10)
(-2.4788e-08 0 -1.90232e-09)
(-3.19631e-08 0 -2.87486e-09)
(-3.58977e-08 0 -3.87732e-09)
(-3.71059e-08 0 -4.43578e-09)
(-3.65481e-08 0 -4.60058e-09)
(-3.51251e-08 0 -4.42198e-09)
(-3.21044e-08 0 -3.86608e-09)
(-2.8372e-08 0 -3.05604e-09)
(-2.36524e-08 0 -2.35071e-09)
(-1.78127e-08 0 -1.7013e-09)
(-1.23821e-08 0 -1.24243e-09)
(-6.52411e-09 0 -6.66438e-10)
(1.52256e-10 0 3.51029e-10)
(6.88552e-09 0 9.19202e-10)
(1.38732e-08 0 1.36432e-09)
(2.17795e-08 0 1.75782e-09)
(3.02995e-08 0 2.07127e-09)
(3.96688e-08 0 2.25681e-09)
(4.98611e-08 0 2.36332e-09)
(6.09325e-08 0 2.32128e-09)
(7.29461e-08 0 2.28557e-09)
(8.587e-08 0 2.33215e-09)
(9.96764e-08 0 2.41203e-09)
(1.14363e-07 0 2.28897e-09)
(1.29773e-07 0 2.02804e-09)
(1.45863e-07 0 1.53061e-09)
(1.62474e-07 0 1.10547e-09)
(1.78915e-07 0 5.67802e-10)
(1.94983e-07 0 2.73725e-12)
(2.10723e-07 0 -7.71298e-10)
(2.25693e-07 0 -1.42783e-09)
(2.3955e-07 0 -1.98032e-09)
(2.51883e-07 0 -2.35625e-09)
(2.62324e-07 0 -2.40947e-09)
(2.70422e-07 0 -2.97298e-09)
(2.75807e-07 0 -3.42761e-09)
(2.78335e-07 0 -3.84524e-09)
(2.77704e-07 0 -4.22601e-09)
(2.73678e-07 0 -4.57498e-09)
(2.66082e-07 0 -4.89815e-09)
(2.54811e-07 0 -5.17336e-09)
(2.39844e-07 0 -5.3948e-09)
(2.21265e-07 0 -5.56215e-09)
(1.98899e-07 0 -5.72643e-09)
(1.73008e-07 0 -5.83882e-09)
(1.44037e-07 0 -5.95531e-09)
(1.1218e-07 0 -6.03483e-09)
(7.79787e-08 0 -6.03069e-09)
(4.14821e-08 0 -5.93074e-09)
(3.30444e-09 0 -5.76311e-09)
(-3.57488e-08 0 -5.65666e-09)
(-7.55274e-08 0 -5.6779e-09)
(-1.15478e-07 0 -5.59416e-09)
(-1.54938e-07 0 -5.35836e-09)
(-1.93329e-07 0 -5.03698e-09)
(-2.30122e-07 0 -4.68482e-09)
(-2.64819e-07 0 -4.32519e-09)
(-2.96962e-07 0 -3.95533e-09)
(-3.26176e-07 0 -3.54778e-09)
(-3.52078e-07 0 -3.07437e-09)
(-3.74289e-07 0 -2.70425e-09)
(-3.92539e-07 0 -2.49209e-09)
(-4.06631e-07 0 -2.25674e-09)
(-4.16467e-07 0 -2.0241e-09)
(-4.22051e-07 0 -1.7474e-09)
(-4.23498e-07 0 -1.3074e-09)
(-4.2074e-07 0 -1.03973e-09)
(-4.13715e-07 0 -8.31942e-10)
(-4.02656e-07 0 -6.56645e-10)
(-3.87653e-07 0 -3.64225e-10)
(-3.69476e-07 0 -1.22304e-12)
(-3.48543e-07 0 4.0106e-10)
(-3.24633e-07 0 5.50284e-10)
(-2.9822e-07 0 6.70704e-10)
(-2.698e-07 0 6.82437e-10)
(-2.39736e-07 0 8.49385e-10)
(-2.08551e-07 0 1.1051e-09)
(-1.76717e-07 0 1.43885e-09)
(-1.44452e-07 0 1.9291e-09)
(-1.12197e-07 0 2.15522e-09)
(-8.04227e-08 0 2.3179e-09)
(-4.93959e-08 0 2.48385e-09)
(-1.94231e-08 0 2.65912e-09)
(9.28925e-09 0 2.73557e-09)
(3.62545e-08 0 2.78016e-09)
(6.12501e-08 0 2.91638e-09)
(8.42771e-08 0 3.05518e-09)
(1.05125e-07 0 3.14219e-09)
(1.2367e-07 0 3.20242e-09)
(1.39778e-07 0 3.23366e-09)
(1.5343e-07 0 3.23912e-09)
(1.64621e-07 0 3.21891e-09)
(1.73379e-07 0 3.17333e-09)
(1.79766e-07 0 3.1007e-09)
(1.83859e-07 0 2.98007e-09)
(1.85747e-07 0 2.82948e-09)
(1.85564e-07 0 2.69821e-09)
(1.8346e-07 0 2.58923e-09)
(1.79598e-07 0 2.47781e-09)
(1.74164e-07 0 2.36194e-09)
(1.67368e-07 0 2.21964e-09)
(1.59405e-07 0 2.08211e-09)
(1.50433e-07 0 1.95976e-09)
(1.40618e-07 0 1.801e-09)
(1.3015e-07 0 1.64706e-09)
(1.19232e-07 0 1.46516e-09)
(1.08039e-07 0 1.30512e-09)
(9.67356e-08 0 1.153e-09)
(8.54657e-08 0 1.01393e-09)
(7.43701e-08 0 8.83891e-10)
(6.35609e-08 0 7.61456e-10)
(5.31728e-08 0 6.57776e-10)
(4.33085e-08 0 5.56297e-10)
(3.39975e-08 0 4.5696e-10)
(2.53134e-08 0 3.64126e-10)
(1.73232e-08 0 2.78647e-10)
(1.0048e-08 0 2.01683e-10)
(3.50483e-09 0 1.33754e-10)
(-2.30226e-09 0 7.4933e-11)
(-7.37979e-09 0 2.51148e-11)
(-1.17419e-08 0 -1.61307e-11)
(-1.54283e-08 0 -4.91697e-11)
(-1.84716e-08 0 -7.60608e-11)
(-2.0899e-08 0 -9.66692e-11)
(-2.27612e-08 0 -1.1103e-10)
(-2.41068e-08 0 -1.19339e-10)
(-2.49932e-08 0 -1.21879e-10)
(-2.54648e-08 0 -1.19444e-10)
(-2.55694e-08 0 -1.11946e-10)
(-2.53715e-08 0 -1.00538e-10)
(-2.49017e-08 0 -8.54143e-11)
(-2.42086e-08 0 -6.73724e-11)
(-2.33361e-08 0 -4.82559e-11)
(-2.23183e-08 0 -2.52909e-11)
(-2.12009e-08 0 -1.95675e-12)
(-2.00091e-08 0 2.20814e-11)
(-1.87683e-08 0 4.64178e-11)
(-1.75006e-08 0 7.06629e-11)
(-1.62249e-08 0 9.44641e-11)
(-1.49561e-08 0 1.17526e-10)
(-1.37063e-08 0 1.39617e-10)
(-1.24846e-08 0 1.60571e-10)
(-1.12979e-08 0 1.80278e-10)
(-1.0151e-08 0 1.98733e-10)
(-9.04792e-09 0 2.15784e-10)
(-7.99036e-09 0 2.31562e-10)
(-6.9792e-09 0 2.46042e-10)
(-6.01465e-09 0 2.59245e-10)
(-5.09835e-09 0 2.71251e-10)
(-4.2299e-09 0 2.81996e-10)
(-3.40484e-09 0 2.91808e-10)
(-2.62961e-09 0 3.00561e-10)
(-1.9041e-09 0 3.08857e-10)
(-1.22239e-09 0 3.16526e-10)
(-5.88616e-10 0 3.243e-10)
(-5.44934e-12 0 3.32147e-10)
(5.23562e-10 0 3.40703e-10)
(9.9508e-10 0 3.49582e-10)
(1.4089e-09 0 3.58456e-10)
(1.76245e-09 0 3.68833e-10)
(2.049e-09 0 3.80072e-10)
(2.26584e-09 0 3.91051e-10)
(2.41552e-09 0 4.00848e-10)
(2.50324e-09 0 4.08486e-10)
(2.53851e-09 0 4.12813e-10)
(2.53418e-09 0 4.12998e-10)
(2.50582e-09 0 4.08143e-10)
(2.47119e-09 0 3.98988e-10)
(2.45598e-09 0 3.81988e-10)
(2.48168e-09 0 3.62455e-10)
(2.56489e-09 0 3.39202e-10)
(2.72552e-09 0 3.1356e-10)
(2.95991e-09 0 2.88197e-10)
(3.27886e-09 0 2.63243e-10)
(3.69629e-09 0 2.40973e-10)
(4.19672e-09 0 2.21464e-10)
(4.76963e-09 0 2.03952e-10)
(5.41143e-09 0 1.94125e-10)
(6.09003e-09 0 1.82295e-10)
(6.77677e-09 0 1.75052e-10)
(7.45953e-09 0 1.72282e-10)
(8.10997e-09 0 1.75782e-10)
(8.7094e-09 0 1.82166e-10)
(9.23724e-09 0 1.97842e-10)
(9.67234e-09 0 2.18713e-10)
(9.99839e-09 0 2.44851e-10)
(1.01992e-08 0 2.7614e-10)
(1.0266e-08 0 3.01712e-10)
(1.01944e-08 0 3.35131e-10)
(9.9819e-09 0 3.65108e-10)
(9.63345e-09 0 3.9119e-10)
(9.16158e-09 0 4.1328e-10)
(8.57964e-09 0 4.29965e-10)
(7.92495e-09 0 4.36293e-10)
(7.22991e-09 0 4.39676e-10)
(6.51736e-09 0 4.35513e-10)
(5.82198e-09 0 4.25271e-10)
(5.16852e-09 0 4.10257e-10)
(4.57228e-09 0 3.93524e-10)
(4.02978e-09 0 3.79038e-10)
(3.53915e-09 0 3.70394e-10)
(3.08686e-09 0 3.69384e-10)
(2.65152e-09 0 3.7491e-10)
(2.22135e-09 0 3.81068e-10)
(1.84539e-09 0 3.81349e-10)
(1.55854e-09 0 3.72525e-10)
(1.37249e-09 0 3.51215e-10)
(1.34472e-09 0 3.20428e-10)
(1.5642e-09 0 3.01989e-10)
(2.08556e-09 0 2.56832e-10)
(2.90253e-09 0 2.14952e-10)
(4.01039e-09 0 1.63028e-10)
(5.36813e-09 0 1.13392e-10)
(6.93214e-09 0 9.02757e-11)
(8.59793e-09 0 9.30368e-11)
(1.02132e-08 0 1.08404e-10)
(1.16625e-08 0 1.46555e-10)
(1.28478e-08 0 1.99839e-10)
(1.36887e-08 0 2.72999e-10)
(1.41087e-08 0 3.7968e-10)
(1.40281e-08 0 5.05264e-10)
(1.33854e-08 0 6.43691e-10)
(1.21617e-08 0 7.79732e-10)
(1.02663e-08 0 9.15098e-10)
(7.60726e-09 0 1.03938e-09)
(4.23598e-09 0 1.18732e-09)
(2.66406e-10 0 1.37604e-09)
(-4.28851e-09 0 1.54224e-09)
(-9.30546e-09 0 1.64592e-09)
(-1.43931e-08 0 1.714e-09)
(-1.95055e-08 0 1.62455e-09)
(-2.43657e-08 0 1.53195e-09)
(-2.85585e-08 0 1.36362e-09)
(-3.20599e-08 0 1.12751e-09)
(-3.47459e-08 0 9.17425e-10)
(-3.6532e-08 0 6.66141e-10)
(-3.75553e-08 0 2.77257e-10)
(-3.78274e-08 0 3.69922e-11)
(-3.7172e-08 0 -5.40165e-11)
(-3.56852e-08 0 -4.5105e-10)
(-3.329e-08 0 -1.00142e-09)
(-2.97968e-08 0 -1.52578e-09)
(-2.5261e-08 0 -2.07958e-09)
(-1.98694e-08 0 -2.40589e-09)
(-1.39466e-08 0 -2.60802e-09)
(-8.037e-09 0 -2.63684e-09)
(-2.52739e-09 0 -2.43386e-09)
(2.01702e-09 0 -1.88635e-09)
(5.55184e-09 0 -8.43641e-10)
(8.51339e-09 0 -3.32965e-11)
(1.10224e-08 0 3.83563e-10)
(1.36444e-08 0 4.03333e-10)
(1.65026e-08 0 2.1816e-10)
(1.9695e-08 0 -4.18088e-11)
(2.32499e-08 0 -2.89126e-10)
(2.68079e-08 0 -4.64233e-10)
(2.95458e-08 0 -7.79135e-10)
(3.15777e-08 0 -8.36192e-10)
(3.29467e-08 0 -7.72906e-10)
(3.31105e-08 0 -8.16816e-10)
(3.23181e-08 0 -6.10451e-10)
(3.07808e-08 0 -3.93985e-10)
(2.90228e-08 0 5.59728e-12)
(2.64256e-08 0 -8.63614e-10)
(2.26863e-08 0 -6.73912e-10)
(1.76627e-08 0 -2.76452e-11)
(1.20534e-08 0 1.16401e-09)
(5.00092e-09 0 1.92887e-09)
(-1.95361e-09 0 1.97438e-09)
(-7.33265e-09 0 7.20459e-10)
(-1.25515e-08 0 1.41052e-10)
(-1.6e-08 0 3.30303e-10)
(-1.83649e-08 0 1.53046e-10)
(-2.12145e-08 0 8.93563e-10)
(-2.48608e-08 0 1.1609e-09)
(-2.92941e-08 0 1.66544e-09)
(-3.45571e-08 0 1.59281e-09)
(-3.89949e-08 0 1.4231e-09)
(-4.16839e-08 0 1.02823e-09)
(-4.26463e-08 0 7.95335e-10)
(-4.17774e-08 0 4.60424e-10)
(-4.01898e-08 0 3.76482e-10)
(-3.77199e-08 0 6.02932e-10)
(-3.54258e-08 0 6.37607e-10)
(-3.22767e-08 0 4.78889e-10)
(-2.61356e-08 0 -7.72804e-11)
(-1.81528e-08 0 -7.1622e-10)
(-6.68603e-09 0 -1.13733e-09)
(7.36994e-09 0 -1.62801e-09)
(2.08173e-08 0 -2.07265e-10)
(3.23061e-08 0 -1.08226e-09)
(3.9304e-08 0 -1.08926e-09)
(4.22718e-08 0 -5.8541e-10)
(4.30016e-08 0 7.4147e-11)
(4.18648e-08 0 2.70615e-10)
(4.3221e-08 0 4.10836e-10)
(4.30272e-08 0 9.86074e-10)
(4.12747e-08 0 1.01871e-09)
(4.13134e-08 0 1.46067e-09)
(4.1873e-08 0 2.00263e-09)
(4.41108e-08 0 1.642e-11)
(4.58536e-08 0 2.47031e-11)
(4.67633e-08 0 4.23743e-10)
(4.58332e-08 0 1.01944e-09)
(4.26129e-08 0 1.6568e-09)
(3.73956e-08 0 2.29147e-09)
(3.12845e-08 0 2.24735e-09)
(2.58663e-08 0 1.6725e-09)
(2.27899e-08 0 8.27874e-10)
(2.18259e-08 0 3.73385e-10)
(2.22651e-08 0 6.49754e-10)
(2.20959e-08 0 -1.44369e-09)
(1.98121e-08 0 -8.32418e-10)
(1.79472e-08 0 -8.44833e-10)
(1.65171e-08 0 -6.28547e-10)
(1.49702e-08 0 -7.04399e-11)
(1.38521e-08 0 3.36306e-10)
(1.31856e-08 0 6.14359e-10)
(1.29467e-08 0 8.09836e-10)
(1.17001e-08 0 1.04547e-09)
(1.19971e-08 0 1.86235e-09)
(1.19447e-08 0 -5.55631e-10)
(1.22752e-08 0 1.20377e-10)
(1.38299e-08 0 -2.34355e-10)
(1.46634e-08 0 5.47201e-10)
(1.32734e-08 0 5.48434e-10)
(1.43024e-08 0 1.73622e-09)
(1.26161e-08 0 1.91408e-09)
(1.27395e-09 0 4.19031e-09)
(-2.62822e-09 0 8.39773e-10)
(1.05009e-10 0 -2.38099e-09)
(0.0569642 0 0.00393353)
(0.0841103 0 0.00351598)
(0.0748525 0 0.00331174)
(0.0690511 0 0.00320885)
(0.0651667 0 0.00304735)
(0.0611721 0 0.00294541)
(0.0573263 0 0.00278995)
(0.0536661 0 0.00266825)
(0.0501864 0 0.00253061)
(0.0468862 0 0.00239373)
(0.043765 0 0.0022619)
(0.0408103 0 0.00213681)
(0.0380476 0 0.00199964)
(0.0354385 0 0.00188529)
(0.0329814 0 0.00176734)
(0.0307009 0 0.00165576)
(0.0285504 0 0.00155445)
(0.0265326 0 0.00143329)
(0.0246557 0 0.00136371)
(0.0229152 0 0.00125927)
(0.0212861 0 0.001168)
(0.0197622 0 0.0010984)
(0.0183481 0 0.00101411)
(0.0170344 0 0.000941478)
(0.0158142 0 0.000884561)
(0.0146789 0 0.000818798)
(0.0136204 0 0.000755055)
(0.0126357 0 0.00070441)
(0.0117221 0 0.000660536)
(0.0108718 0 0.000614193)
(0.0100804 0 0.000565099)
(0.00934613 0 0.000521148)
(0.00866201 0 0.000483248)
(0.0080298 0 0.000452178)
(0.00744742 0 0.000421795)
(0.0069085 0 0.000386758)
(0.00640329 0 0.000355277)
(0.00592983 0 0.000330581)
(0.00549258 0 0.000309029)
(0.0050881 0 0.000289447)
(0.00471201 0 0.000266753)
(0.00436041 0 0.000244164)
(0.00403993 0 0.000226866)
(0.00373847 0 0.000211163)
(0.00345494 0 0.000197802)
(0.00319602 0 0.000183733)
(0.00296264 0 0.000167884)
(0.00274849 0 0.00015144)
(0.00254485 0 0.000135858)
(0.00235856 0 0.000127675)
(0.0021873 0 0.000121199)
(0.00202744 0 0.000115736)
(0.0018739 0 0.000107668)
(0.00173277 0 0.000100164)
(0.00160732 0 9.36817e-05)
(0.00148917 0 8.61227e-05)
(0.00137723 0 7.90591e-05)
(0.00127479 0 7.32154e-05)
(0.0011806 0 6.66401e-05)
(0.00109576 0 6.18528e-05)
(0.00101895 0 5.63595e-05)
(0.000946269 0 5.22311e-05)
(0.000878826 0 4.90027e-05)
(0.000815342 0 4.64345e-05)
(0.000755598 0 4.40073e-05)
(0.000699636 0 4.12768e-05)
(0.00064762 0 3.80046e-05)
(0.000599684 0 3.44133e-05)
(0.000555859 0 3.10395e-05)
(0.000515979 0 2.81194e-05)
(0.000479433 0 2.577e-05)
(0.000445504 0 2.4009e-05)
(0.000413752 0 2.25751e-05)
(0.000383921 0 2.12518e-05)
(0.000355923 0 1.99294e-05)
(0.000329804 0 1.85428e-05)
(0.000305492 0 1.71758e-05)
(0.000282908 0 1.5857e-05)
(0.000261953 0 1.46265e-05)
(0.000242491 0 1.34818e-05)
(0.000224356 0 1.24711e-05)
(0.000207527 0 1.15818e-05)
(0.000191966 0 1.07801e-05)
(0.000177466 0 1.00097e-05)
(0.000163943 0 9.2705e-06)
(0.000151423 0 8.56216e-06)
(0.000139881 0 7.8845e-06)
(0.000129277 0 7.21625e-06)
(0.000119571 0 6.58069e-06)
(0.000110698 0 6.0005e-06)
(0.000102573 0 5.48705e-06)
(9.5115e-05 0 5.04529e-06)
(8.82441e-05 0 4.65696e-06)
(8.18735e-05 0 4.30477e-06)
(7.59676e-05 0 4.00363e-06)
(7.04579e-05 0 3.75064e-06)
(6.52616e-05 0 3.53335e-06)
(6.03598e-05 0 3.33676e-06)
(5.57433e-05 0 3.13056e-06)
(5.14119e-05 0 2.90997e-06)
(4.73828e-05 0 2.67505e-06)
(4.36655e-05 0 2.43664e-06)
(4.02528e-05 0 2.20527e-06)
(3.71377e-05 0 1.98843e-06)
(3.43e-05 0 1.80067e-06)
(3.17004e-05 0 1.64976e-06)
(2.92964e-05 0 1.53691e-06)
(2.70485e-05 0 1.4557e-06)
(2.49201e-05 0 1.39547e-06)
(2.29052e-05 0 1.34603e-06)
(2.09972e-05 0 1.29332e-06)
(1.91882e-05 0 1.23185e-06)
(1.74907e-05 0 1.15868e-06)
(1.59202e-05 0 1.07859e-06)
(1.44811e-05 0 9.94165e-07)
(1.31674e-05 0 9.11662e-07)
(1.19775e-05 0 8.3496e-07)
(1.09011e-05 0 7.66379e-07)
(9.92756e-06 0 7.04246e-07)
(9.04879e-06 0 6.47477e-07)
(8.25465e-06 0 5.89048e-07)
(7.54723e-06 0 5.37817e-07)
(6.92564e-06 0 4.86994e-07)
(6.37987e-06 0 4.36237e-07)
(5.90715e-06 0 3.84856e-07)
(5.50159e-06 0 3.34779e-07)
(5.1565e-06 0 2.8845e-07)
(4.86114e-06 0 2.45572e-07)
(4.60809e-06 0 2.10365e-07)
(4.39039e-06 0 1.81065e-07)
(4.19795e-06 0 1.58612e-07)
(4.01548e-06 0 1.42696e-07)
(3.85529e-06 0 1.32122e-07)
(3.71253e-06 0 1.25781e-07)
(3.56396e-06 0 1.19899e-07)
(3.41645e-06 0 1.15771e-07)
(3.26993e-06 0 1.12278e-07)
(3.12408e-06 0 1.08522e-07)
(2.97907e-06 0 1.04821e-07)
(2.83494e-06 0 1.01291e-07)
(2.69115e-06 0 9.82608e-08)
(2.54698e-06 0 9.54854e-08)
(2.40228e-06 0 9.23616e-08)
(2.25637e-06 0 8.96394e-08)
(2.1094e-06 0 8.73561e-08)
(1.96291e-06 0 8.61612e-08)
(1.8178e-06 0 8.44053e-08)
(1.67215e-06 0 8.20287e-08)
(1.52729e-06 0 7.89046e-08)
(1.38616e-06 0 7.50558e-08)
(1.2488e-06 0 7.02116e-08)
(1.11665e-06 0 6.46858e-08)
(9.90357e-07 0 5.89541e-08)
(8.70839e-07 0 5.32489e-08)
(7.59248e-07 0 4.78007e-08)
(6.56632e-07 0 4.18413e-08)
(5.62067e-07 0 3.54678e-08)
(4.75346e-07 0 2.93719e-08)
(3.97594e-07 0 2.41377e-08)
(3.27409e-07 0 1.98402e-08)
(2.6474e-07 0 1.65467e-08)
(2.10353e-07 0 1.21614e-08)
(1.62078e-07 0 6.7319e-09)
(1.19092e-07 0 1.97296e-09)
(8.29919e-08 0 -1.16294e-09)
(5.30682e-08 0 -4.12351e-09)
(2.84563e-08 0 -6.27884e-09)
(8.24018e-09 0 -8.78329e-09)
(-7.98313e-09 0 -1.0606e-08)
(-1.99702e-08 0 -1.19295e-08)
(-2.86343e-08 0 -1.27082e-08)
(-3.39251e-08 0 -1.29501e-08)
(-3.62598e-08 0 -1.27518e-08)
(-3.6793e-08 0 -1.21479e-08)
(-3.63565e-08 0 -1.12831e-08)
(-3.41644e-08 0 -1.02525e-08)
(-3.12754e-08 0 -9.02844e-09)
(-2.72946e-08 0 -7.24526e-09)
(-2.20418e-08 0 -6.21513e-09)
(-1.69286e-08 0 -3.89494e-09)
(-1.09259e-08 0 -2.13166e-09)
(-4.27893e-09 0 5.59276e-11)
(2.2827e-09 0 1.07445e-09)
(9.37795e-09 0 2.39128e-09)
(1.75292e-08 0 3.17156e-09)
(2.63455e-08 0 3.84022e-09)
(3.60941e-08 0 4.57997e-09)
(4.67269e-08 0 5.14268e-09)
(5.8336e-08 0 5.533e-09)
(7.10391e-08 0 5.85717e-09)
(8.46857e-08 0 5.68781e-09)
(9.90736e-08 0 5.03433e-09)
(1.14234e-07 0 4.32217e-09)
(1.30067e-07 0 3.54696e-09)
(1.46641e-07 0 2.68505e-09)
(1.63737e-07 0 1.54899e-09)
(1.80544e-07 0 2.83866e-10)
(1.96855e-07 0 -9.64886e-10)
(2.12838e-07 0 -2.22135e-09)
(2.28131e-07 0 -3.66159e-09)
(2.42266e-07 0 -5.26889e-09)
(2.54919e-07 0 -6.88845e-09)
(2.65266e-07 0 -8.98089e-09)
(2.73094e-07 0 -1.09357e-08)
(2.78409e-07 0 -1.26104e-08)
(2.80753e-07 0 -1.42491e-08)
(2.7986e-07 0 -1.57241e-08)
(2.75509e-07 0 -1.7053e-08)
(2.67556e-07 0 -1.82396e-08)
(2.55918e-07 0 -1.92855e-08)
(2.40582e-07 0 -2.01873e-08)
(2.21617e-07 0 -2.09401e-08)
(1.98886e-07 0 -2.15457e-08)
(1.72659e-07 0 -2.19835e-08)
(1.43385e-07 0 -2.22387e-08)
(1.11317e-07 0 -2.23065e-08)
(7.69858e-08 0 -2.21387e-08)
(4.04064e-08 0 -2.18983e-08)
(2.12501e-09 0 -2.13938e-08)
(-3.70749e-08 0 -2.09036e-08)
(-7.68672e-08 0 -2.04584e-08)
(-1.16645e-07 0 -1.98625e-08)
(-1.55904e-07 0 -1.90713e-08)
(-1.94122e-07 0 -1.81242e-08)
(-2.30758e-07 0 -1.70709e-08)
(-2.65295e-07 0 -1.59455e-08)
(-2.97251e-07 0 -1.47539e-08)
(-3.26249e-07 0 -1.34261e-08)
(-3.52005e-07 0 -1.22131e-08)
(-3.74188e-07 0 -1.09361e-08)
(-3.92355e-07 0 -9.67206e-09)
(-4.06297e-07 0 -8.4017e-09)
(-4.15991e-07 0 -7.20583e-09)
(-4.21365e-07 0 -6.07133e-09)
(-4.2273e-07 0 -4.96506e-09)
(-4.20022e-07 0 -3.79796e-09)
(-4.12996e-07 0 -2.40208e-09)
(-4.01868e-07 0 -9.85302e-10)
(-3.86761e-07 0 2.55043e-10)
(-3.68539e-07 0 1.27222e-09)
(-3.47738e-07 0 2.39158e-09)
(-3.24005e-07 0 3.3796e-09)
(-2.97712e-07 0 4.55527e-09)
(-2.69326e-07 0 5.78035e-09)
(-2.39205e-07 0 6.84916e-09)
(-2.08005e-07 0 7.76688e-09)
(-1.76122e-07 0 8.52278e-09)
(-1.43979e-07 0 9.24088e-09)
(-1.11953e-07 0 9.98909e-09)
(-8.02678e-08 0 1.06033e-08)
(-4.9288e-08 0 1.11408e-08)
(-1.94068e-08 0 1.16391e-08)
(9.20093e-09 0 1.21581e-08)
(3.61638e-08 0 1.25145e-08)
(6.11817e-08 0 1.27849e-08)
(8.41665e-08 0 1.29216e-08)
(1.04964e-07 0 1.29098e-08)
(1.23477e-07 0 1.27913e-08)
(1.39558e-07 0 1.25735e-08)
(1.5319e-07 0 1.22675e-08)
(1.64366e-07 0 1.18807e-08)
(1.73112e-07 0 1.14205e-08)
(1.79479e-07 0 1.08911e-08)
(1.83552e-07 0 1.0282e-08)
(1.85454e-07 0 9.61335e-09)
(1.85314e-07 0 8.92899e-09)
(1.83241e-07 0 8.23942e-09)
(1.79397e-07 0 7.53822e-09)
(1.73968e-07 0 6.93149e-09)
(1.6718e-07 0 6.33634e-09)
(1.59244e-07 0 5.7457e-09)
(1.50278e-07 0 5.05804e-09)
(1.4046e-07 0 4.45075e-09)
(1.29993e-07 0 3.86879e-09)
(1.19081e-07 0 3.34191e-09)
(1.0791e-07 0 2.84105e-09)
(9.66221e-08 0 2.35827e-09)
(8.53662e-08 0 1.90667e-09)
(7.42798e-08 0 1.49049e-09)
(6.34829e-08 0 1.11212e-09)
(5.31029e-08 0 7.8137e-10)
(4.32368e-08 0 4.86155e-10)
(3.39252e-08 0 2.26286e-10)
(2.52422e-08 0 4.52755e-12)
(1.72535e-08 0 -1.80271e-10)
(9.9804e-09 0 -3.29003e-10)
(3.43952e-09 0 -4.43159e-10)
(-2.36498e-09 0 -5.25034e-10)
(-7.43967e-09 0 -5.77101e-10)
(-1.17985e-08 0 -6.02319e-10)
(-1.54818e-08 0 -6.02313e-10)
(-1.85218e-08 0 -5.83545e-10)
(-2.09443e-08 0 -5.47365e-10)
(-2.28004e-08 0 -4.96157e-10)
(-2.41384e-08 0 -4.32317e-10)
(-2.50164e-08 0 -3.5839e-10)
(-2.54782e-08 0 -2.75885e-10)
(-2.55724e-08 0 -1.88136e-10)
(-2.53636e-08 0 -9.65394e-11)
(-2.48825e-08 0 -4.20182e-12)
(-2.41787e-08 0 8.82347e-11)
(-2.32948e-08 0 1.78982e-10)
(-2.22658e-08 0 2.69071e-10)
(-2.11392e-08 0 3.53972e-10)
(-1.99389e-08 0 4.34229e-10)
(-1.86909e-08 0 5.09324e-10)
(-1.74178e-08 0 5.78891e-10)
(-1.61384e-08 0 6.42737e-10)
(-1.48683e-08 0 7.00863e-10)
(-1.36195e-08 0 7.53462e-10)
(-1.24013e-08 0 8.00908e-10)
(-1.12207e-08 0 8.43722e-10)
(-1.00824e-08 0 8.82651e-10)
(-8.99025e-09 0 9.18075e-10)
(-7.94573e-09 0 9.50966e-10)
(-6.94937e-09 0 9.81886e-10)
(-6.00091e-09 0 1.0114e-09)
(-5.10151e-09 0 1.0401e-09)
(-4.25021e-09 0 1.06807e-09)
(-3.44201e-09 0 1.09609e-09)
(-2.68286e-09 0 1.12391e-09)
(-1.97219e-09 0 1.15271e-09)
(-1.30374e-09 0 1.18196e-09)
(-6.81071e-10 0 1.21311e-09)
(-1.0641e-10 0 1.24573e-09)
(4.1699e-10 0 1.28078e-09)
(8.86289e-10 0 1.3168e-09)
(1.30294e-09 0 1.35225e-09)
(1.66533e-09 0 1.39031e-09)
(1.96628e-09 0 1.42809e-09)
(2.2037e-09 0 1.4623e-09)
(2.38066e-09 0 1.48987e-09)
(2.50214e-09 0 1.5076e-09)
(2.57692e-09 0 1.51204e-09)
(2.61665e-09 0 1.50046e-09)
(2.63547e-09 0 1.47016e-09)
(2.64697e-09 0 1.42303e-09)
(2.67605e-09 0 1.34698e-09)
(2.74186e-09 0 1.25886e-09)
(2.85575e-09 0 1.15323e-09)
(3.0366e-09 0 1.03475e-09)
(3.27795e-09 0 9.09355e-10)
(3.58896e-09 0 7.80928e-10)
(3.98326e-09 0 6.5576e-10)
(4.44429e-09 0 5.3728e-10)
(4.96571e-09 0 4.27125e-10)
(5.54161e-09 0 3.41052e-10)
(6.14269e-09 0 2.63363e-10)
(6.74802e-09 0 2.06226e-10)
(7.34595e-09 0 1.69976e-10)
(7.90955e-09 0 1.55847e-10)
(8.4253e-09 0 1.64122e-10)
(8.87483e-09 0 1.92784e-10)
(9.23636e-09 0 2.40909e-10)
(9.49776e-09 0 3.06654e-10)
(9.63931e-09 0 3.88234e-10)
(9.66115e-09 0 4.74854e-10)
(9.56017e-09 0 5.73091e-10)
(9.32888e-09 0 6.72015e-10)
(8.97825e-09 0 7.65631e-10)
(8.51987e-09 0 8.51466e-10)
(7.96469e-09 0 9.24773e-10)
(7.35172e-09 0 9.71586e-10)
(6.71107e-09 0 1.00813e-09)
(6.0586e-09 0 1.02274e-09)
(5.42698e-09 0 1.01958e-09)
(4.83681e-09 0 1.00407e-09)
(4.29962e-09 0 9.85127e-10)
(3.81048e-09 0 9.72357e-10)
(3.37015e-09 0 9.71053e-10)
(2.9668e-09 0 9.75072e-10)
(2.58225e-09 0 9.85406e-10)
(2.20957e-09 0 9.87207e-10)
(1.90032e-09 0 9.58024e-10)
(1.68983e-09 0 8.85356e-10)
(1.5819e-09 0 7.50538e-10)
(1.63297e-09 0 5.48788e-10)
(1.89743e-09 0 3.12961e-10)
(2.42071e-09 0 2.07387e-11)
(3.20197e-09 0 -2.32165e-10)
(4.22497e-09 0 -4.36379e-10)
(5.46954e-09 0 -6.11328e-10)
(6.89325e-09 0 -7.16271e-10)
(8.38476e-09 0 -7.21611e-10)
(9.8092e-09 0 -6.10235e-10)
(1.10702e-08 0 -3.99821e-10)
(1.20804e-08 0 -1.19712e-10)
(1.27805e-08 0 2.6913e-10)
(1.30967e-08 0 6.95527e-10)
(1.29521e-08 0 1.14988e-09)
(1.22939e-08 0 1.62837e-09)
(1.11082e-08 0 2.10515e-09)
(9.32041e-09 0 2.61768e-09)
(6.87802e-09 0 3.15829e-09)
(3.85951e-09 0 3.64996e-09)
(3.44177e-10 0 4.13471e-09)
(-3.69063e-09 0 4.59239e-09)
(-8.10218e-09 0 4.82809e-09)
(-1.25671e-08 0 4.8673e-09)
(-1.70269e-08 0 4.54097e-09)
(-2.12378e-08 0 4.14668e-09)
(-2.48988e-08 0 3.56766e-09)
(-2.79291e-08 0 2.99512e-09)
(-3.02556e-08 0 2.44716e-09)
(-3.18821e-08 0 1.85525e-09)
(-3.27539e-08 0 1.61165e-09)
(-3.29025e-08 0 9.94467e-10)
(-3.2467e-08 0 1.53711e-10)
(-3.13415e-08 0 -4.91577e-10)
(-2.92735e-08 0 -1.15272e-09)
(-2.62317e-08 0 -1.90921e-09)
(-2.22893e-08 0 -2.56324e-09)
(-1.76716e-08 0 -2.98632e-09)
(-1.26453e-08 0 -3.16223e-09)
(-7.58087e-09 0 -2.97998e-09)
(-2.71228e-09 0 -2.56959e-09)
(1.65922e-09 0 -2.22777e-09)
(5.17269e-09 0 -2.02059e-09)
(7.95153e-09 0 -2.18426e-09)
(1.03718e-08 0 -2.35343e-09)
(1.30261e-08 0 -2.42663e-09)
(1.59659e-08 0 -2.47782e-09)
(1.9169e-08 0 -2.58432e-09)
(2.26482e-08 0 -2.44637e-09)
(2.5959e-08 0 -2.12527e-09)
(2.8477e-08 0 -1.26212e-09)
(3.04476e-08 0 -6.91915e-10)
(3.16329e-08 0 3.68204e-11)
(3.16177e-08 0 8.38564e-10)
(3.07243e-08 0 1.47921e-09)
(2.91412e-08 0 1.73529e-09)
(2.67489e-08 0 1.92425e-09)
(2.37406e-08 0 3.35947e-09)
(2.03543e-08 0 4.46182e-09)
(1.58761e-08 0 5.23257e-09)
(1.09375e-08 0 5.82973e-09)
(4.30796e-09 0 4.9851e-09)
(-2.66771e-09 0 4.84678e-09)
(-7.61733e-09 0 4.79306e-09)
(-1.18651e-08 0 4.12175e-09)
(-1.55641e-08 0 3.21726e-09)
(-1.87066e-08 0 3.02333e-09)
(-2.22637e-08 0 3.35636e-09)
(-2.65763e-08 0 4.1974e-09)
(-3.09475e-08 0 4.25296e-09)
(-3.55136e-08 0 4.36404e-09)
(-3.87718e-08 0 3.47286e-09)
(-3.99931e-08 0 2.10355e-09)
(-3.97129e-08 0 7.08972e-10)
(-3.78075e-08 0 -5.00417e-10)
(-3.49587e-08 0 -8.6796e-10)
(-3.12289e-08 0 -8.73361e-10)
(-2.7586e-08 0 -1.25201e-09)
(-2.34491e-08 0 -2.36565e-09)
(-1.73294e-08 0 -4.38762e-09)
(-1.03733e-08 0 -6.05147e-09)
(-1.85023e-09 0 -8.59577e-09)
(9.00228e-09 0 -7.74817e-09)
(1.7237e-08 0 -8.68946e-09)
(2.35987e-08 0 -5.13383e-09)
(2.95872e-08 0 -1.5629e-09)
(3.29939e-08 0 3.94299e-10)
(3.50926e-08 0 1.91712e-09)
(3.57098e-08 0 2.09523e-09)
(3.88701e-08 0 1.97026e-09)
(4.00899e-08 0 1.43409e-09)
(3.96509e-08 0 1.39665e-09)
(4.13778e-08 0 9.01091e-10)
(4.12641e-08 0 -1.18331e-09)
(4.23684e-08 0 8.45027e-11)
(4.39323e-08 0 -2.79832e-11)
(4.34333e-08 0 7.54765e-10)
(4.11032e-08 0 2.507e-09)
(3.73006e-08 0 4.28093e-09)
(3.24305e-08 0 5.29018e-09)
(2.74181e-08 0 5.02664e-09)
(2.3287e-08 0 3.69873e-09)
(2.08207e-08 0 2.01687e-09)
(1.92714e-08 0 3.60511e-10)
(1.6561e-08 0 -1.43546e-10)
(1.4888e-08 0 2.1242e-09)
(1.34591e-08 0 2.24379e-09)
(1.16163e-08 0 2.06817e-09)
(1.03928e-08 0 1.4141e-09)
(8.38342e-09 0 1.13621e-09)
(6.30068e-09 0 6.55376e-10)
(4.27725e-09 0 2.69207e-11)
(2.77871e-09 0 -2.51113e-10)
(1.46029e-09 0 -2.95369e-10)
(-1.73218e-10 0 -1.28589e-09)
(-1.13466e-09 0 -1.59539e-09)
(-1.12839e-09 0 -1.07921e-09)
(-9.35648e-10 0 -8.67005e-10)
(7.37118e-11 0 -2.61562e-10)
(-1.46256e-09 0 -2.41342e-09)
(-1.71414e-09 0 1.4694e-10)
(-3.86843e-10 0 2.59638e-09)
(-6.57247e-09 0 4.27416e-09)
(-7.22053e-09 0 -3.30343e-10)
(-8.50384e-10 0 -1.21227e-08)
(0.0568906 0 0.00653428)
(0.0840247 0 0.00584904)
(0.0747703 0 0.00552089)
(0.0689668 0 0.00534976)
(0.0650799 0 0.00509092)
(0.0610817 0 0.0049053)
(0.0572401 0 0.00465676)
(0.0535749 0 0.00443998)
(0.050091 0 0.00421877)
(0.0467968 0 0.00399605)
(0.0436836 0 0.00376938)
(0.0407228 0 0.00355465)
(0.0379571 0 0.00334052)
(0.0353628 0 0.00314293)
(0.032913 0 0.0029491)
(0.0306237 0 0.00275454)
(0.0284766 0 0.00258738)
(0.0264704 0 0.00239555)
(0.0245958 0 0.00226256)
(0.0228576 0 0.00209803)
(0.0212318 0 0.00194095)
(0.0197094 0 0.00181869)
(0.0182985 0 0.00169009)
(0.0169896 0 0.00157)
(0.0157721 0 0.00146364)
(0.0146381 0 0.00135801)
(0.0135809 0 0.00125661)
(0.0126004 0 0.00117144)
(0.0116912 0 0.00109628)
(0.0108435 0 0.00101591)
(0.0100526 0 0.000935632)
(0.00931848 0 0.000863811)
(0.00863751 0 0.000803351)
(0.00800914 0 0.000750904)
(0.00742911 0 0.000694959)
(0.00688972 0 0.000639522)
(0.00638313 0 0.000588975)
(0.00590963 0 0.000549414)
(0.00547423 0 0.0005146)
(0.00507312 0 0.000480655)
(0.00469905 0 0.000442752)
(0.00434849 0 0.000406929)